 VARIABLES = X,Y,Z,S11,S22,S33,S12,S13,S23
 ZONE, T="0.1000D+01" F=FEPOINT, I=   12 J=    2 ET=BRICK
   0.0000000000E+00   0.0000000000E+00   0.0000000000E+00   0.4505009133E+01   0.8876613452E-12   0.8909639145E-12  -0.1036827093E-17   0.2239339752E-14   0.2215030695E-14
   0.1150000000E+01   0.0000000000E+00   0.1478060416E-15   0.4505009133E+01   0.4348365257E-12   0.4373082834E-12   0.6145398025E-15  -0.3953548049E-14   0.8684455793E-15
   0.1150000000E+01   0.9332047027E+00   0.2405469178E-15   0.4505009133E+01   0.4326207724E-12   0.4338766661E-12   0.1139585353E-14   0.7958839872E-15   0.7680259654E-15
   0.0000000000E+00   0.9332047027E+00   0.2422962513E-15   0.4505009133E+01   0.8390889945E-12   0.8384610477E-12  -0.1099182905E-14  -0.2986193602E-15   0.1280553030E-14
   0.0000000000E+00   0.0000000000E+00   0.9332047027E+00   0.4505009133E+01   0.1495293055E-12   0.1482933219E-12   0.3387236833E-17   0.5364888484E-15  -0.8427779252E-15
   0.1150000000E+01   0.0000000000E+00   0.9332047027E+00   0.4505009133E+01   0.4328561687E-12   0.4353281360E-12   0.5307580414E-14  -0.3419877909E-14  -0.2813400551E-15
   0.1150000000E+01   0.9332047027E+00   0.9332047027E+00   0.4505009132E+01   0.4339626389E-12   0.4352183574E-12   0.4784947800E-14   0.2020611943E-14  -0.3817596688E-15
   0.0000000000E+00   0.9332047027E+00   0.9332047027E+00   0.4505009132E+01   0.8926367365E-12   0.8874704292E-12   0.1245481748E-14   0.1387233719E-14  -0.1777255590E-14
   0.2300000000E+01   0.0000000000E+00   0.1336811773E-15   0.4505009133E+01   0.3683769281E-12   0.3714224253E-12  -0.1594967963E-15  -0.1179177693E-14   0.1620706822E-14
   0.2300000000E+01   0.9332047027E+00   0.3093102835E-15   0.4505009132E+01   0.4147331457E-12   0.4126322376E-12   0.1988740383E-14   0.1029802155E-14  -0.1226525720E-14
   0.2300000000E+01   0.0000000000E+00   0.9332047027E+00   0.4505009132E+01   0.1102544699E-11   0.1110128724E-11  -0.1696847226E-15   0.1591013488E-14  -0.2249579105E-15
   0.2300000000E+01   0.9332047027E+00   0.9332047027E+00   0.4505009132E+01   0.3638700891E-12   0.3663073101E-12  -0.2457044461E-14   0.1793404989E-14  -0.3072190451E-14
     1     2     3     4     5     6     7     8
     2     9    10     3     6    11    12     7
 VARIABLES = X,Y,Z,S11,S22,S33,S12,S13,S23
 ZONE, T="0.2000D+01" F=FEPOINT, I=   12 J=    2 ET=BRICK
   0.0000000000E+00   0.0000000000E+00   0.0000000000E+00   0.9137826101E+01   0.4217444365E-10   0.4217788543E-10   0.2931600129E-16  -0.2817084004E-14  -0.7025856057E-15
   0.1300000000E+01   0.0000000000E+00  -0.1353967706E-15   0.9137826101E+01   0.4266940678E-10   0.4266915040E-10  -0.5202289535E-14  -0.4976596647E-14   0.8487427995E-15
   0.1300000000E+01   0.8783927377E+00  -0.3680764055E-16   0.9137826100E+01   0.4223825245E-10   0.4223328176E-10  -0.5566971504E-14   0.6442152869E-14   0.7194520015E-15
   0.0000000000E+00   0.8783927377E+00  -0.8856448767E-16   0.9137826100E+01   0.4185177022E-10   0.4185756981E-10   0.9301250268E-15   0.1037426791E-14  -0.6671890907E-15
   0.0000000000E+00   0.0000000000E+00   0.8783927377E+00   0.9137826100E+01   0.4169000218E-10   0.4168716675E-10   0.8885534444E-16   0.3284970962E-14   0.2283667543E-14
   0.1300000000E+01   0.0000000000E+00   0.8783927377E+00   0.9137826100E+01   0.4256620623E-10   0.4257187741E-10   0.6534989507E-14  -0.6074005770E-14  -0.8783861433E-15
   0.1300000000E+01   0.8783927377E+00   0.8783927377E+00   0.9137826099E+01   0.4192614369E-10   0.4192710023E-10   0.6347059432E-14   0.5504593654E-14  -0.1007676941E-14
   0.0000000000E+00   0.8783927377E+00   0.8783927377E+00   0.9137826099E+01   0.4345710536E-10   0.4345662693E-10  -0.1292972935E-15  -0.3277039492E-14   0.2319064058E-14
   0.2600000000E+01   0.0000000000E+00   0.1335734313E-15   0.9137826101E+01   0.4110058489E-10   0.4109522981E-10  -0.2560344562E-17   0.4942876134E-14  -0.2739857835E-14
   0.2600000000E+01   0.8783927377E+00  -0.1816544840E-15   0.9137826100E+01   0.4347518873E-10   0.4348455790E-10  -0.1632733308E-14  -0.3381365997E-14  -0.2321326551E-14
   0.2600000000E+01   0.0000000000E+00   0.8783927377E+00   0.9137826100E+01   0.4297594659E-10   0.4296884065E-10  -0.7429054135E-16  -0.3353997076E-14   0.7801275899E-15
   0.2600000000E+01   0.8783927377E+00   0.8783927377E+00   0.9137826099E+01   0.4168333567E-10   0.4169095414E-10  -0.2319980509E-15  -0.9420181432E-15   0.1198658873E-14
     1     2     3     4     5     6     7     8
     2     9    10     3     6    11    12     7
 VARIABLES = X,Y,Z,S11,S22,S33,S12,S13,S23
 ZONE, T="0.3000D+01" F=FEPOINT, I=   12 J=    2 ET=BRICK
   0.0000000000E+00   0.0000000000E+00   0.0000000000E+00   0.1398743099E+02   0.4391503271E-11   0.4386281069E-11   0.5217354208E-16  -0.1206224633E-14  -0.1444982870E-14
   0.1450000000E+01   0.0000000000E+00  -0.8607856106E-16   0.1398743099E+02   0.5066380972E-11   0.5067354959E-11   0.2755966535E-14   0.7941249822E-15   0.9871523862E-16
   0.1450000000E+01   0.8323885354E+00  -0.7347987265E-16   0.1398743098E+02   0.5040766972E-11   0.5036876385E-11   0.1722895348E-14  -0.1420984918E-15   0.6223882211E-15
   0.0000000000E+00   0.8323885354E+00  -0.1809513781E-15   0.1398743098E+02   0.6150443939E-11   0.6157729045E-11  -0.1925391560E-14   0.7255143214E-15  -0.2377679745E-14
   0.0000000000E+00   0.0000000000E+00   0.8323885354E+00   0.1398743098E+02   0.5237384062E-11   0.5232509548E-11   0.1648636186E-15   0.1719885072E-14   0.1126054651E-14
   0.1450000000E+01   0.0000000000E+00   0.8323885354E+00   0.1398743098E+02   0.5039613414E-11   0.5039888772E-11  -0.3164462114E-14   0.3595661950E-14  -0.2193987528E-15
   0.1450000000E+01   0.8323885354E+00   0.8323885354E+00   0.1398743098E+02   0.5136853641E-11   0.5132265727E-11  -0.4191765743E-14  -0.4548088275E-14   0.3042742297E-15
   0.0000000000E+00   0.8323885354E+00   0.8323885354E+00   0.1398743098E+02   0.5147047556E-11   0.5154683191E-11   0.2030433733E-14  -0.4485240483E-15   0.1933577752E-15
   0.2900000000E+01   0.0000000000E+00  -0.1958225075E-15   0.1398743099E+02   0.6077897420E-11   0.6083483490E-11  -0.1388096611E-15  -0.6730434217E-15   0.3515713001E-14
   0.2900000000E+01   0.8323885354E+00   0.2331907613E-15   0.1398743098E+02   0.4510133859E-11   0.4503398718E-11  -0.2273869311E-15   0.3907325395E-14   0.2515593640E-14
   0.2900000000E+01   0.0000000000E+00   0.8323885354E+00   0.1398743098E+02   0.5419775531E-11   0.5430225950E-11   0.5046659434E-15   0.2003920809E-14  -0.2284907844E-14
   0.2900000000E+01   0.8323885354E+00   0.8323885354E+00   0.1398743098E+02   0.4784298750E-11   0.4782427720E-11  -0.3415511429E-14  -0.3730615803E-14  -0.3285027204E-14
     1     2     3     4     5     6     7     8
     2     9    10     3     6    11    12     7
 VARIABLES = X,Y,Z,S11,S22,S33,S12,S13,S23
 ZONE, T="0.4000D+01" F=FEPOINT, I=   12 J=    2 ET=BRICK
   0.0000000000E+00   0.0000000000E+00   0.0000000000E+00   0.1910697663E+02   0.3389853220E-04   0.3389853220E-04   0.1349389132E-15  -0.8137237842E-15  -0.8433898400E-15
   0.1600000000E+01   0.0000000000E+00  -0.7136970985E-16   0.1910697663E+02   0.3389853307E-04   0.3389853306E-04  -0.1044411106E-14  -0.2286863438E-14  -0.4358712806E-16
   0.1600000000E+01   0.7930829933E+00  -0.7460352143E-16   0.1910697663E+02   0.3389853333E-04   0.3389853333E-04   0.1074926106E-14   0.1966350573E-14  -0.1567237091E-14
   0.0000000000E+00   0.7930829933E+00  -0.9368999086E-16   0.1910697663E+02   0.3389853239E-04   0.3389853239E-04   0.4920981372E-14  -0.3765965948E-16   0.1488226717E-15
   0.0000000000E+00   0.0000000000E+00   0.7930829933E+00   0.1910697663E+02   0.3389853362E-04   0.3389853362E-04   0.2390759233E-15   0.8602802145E-15  -0.6679854215E-15
   0.1600000000E+01   0.0000000000E+00   0.7930829933E+00   0.1910697663E+02   0.3389853246E-04   0.3389853246E-04   0.2213303243E-15  -0.1156051464E-14   0.1077678066E-14
   0.1600000000E+01   0.7930829933E+00   0.7930829933E+00   0.1910697663E+02   0.3389853272E-04   0.3389853272E-04   0.1056577946E-14   0.3749244634E-14  -0.4459718962E-15
   0.0000000000E+00   0.7930829933E+00   0.7930829933E+00   0.1910697663E+02   0.3389853282E-04   0.3389853281E-04  -0.2355932610E-14   0.4286068953E-14   0.3242270901E-15
   0.3200000000E+01   0.0000000000E+00  -0.8292882239E-16   0.1910697663E+02   0.3389853325E-04   0.3389853325E-04   0.2126596916E-16   0.1917643005E-14   0.5372445831E-15
   0.3200000000E+01   0.7930829933E+00  -0.1261194277E-16   0.1910697663E+02   0.3389853291E-04   0.3389853291E-04  -0.5261020653E-15   0.1311116441E-14  -0.2895499625E-15
   0.3200000000E+01   0.0000000000E+00   0.7930829933E+00   0.1910697663E+02   0.3389853264E-04   0.3389853264E-04  -0.5792140686E-15   0.2505262954E-14   0.1243284648E-14
   0.3200000000E+01   0.7930829933E+00   0.7930829933E+00   0.1910697663E+02   0.3389853330E-04   0.3389853330E-04   0.3686289708E-14   0.5531759513E-15   0.4164901025E-15
     1     2     3     4     5     6     7     8
     2     9    10     3     6    11    12     7
 VARIABLES = X,Y,Z,S11,S22,S33,S12,S13,S23
 ZONE, T="0.5000D+01" F=FEPOINT, I=   12 J=    2 ET=BRICK
   0.0000000000E+00   0.0000000000E+00   0.0000000000E+00   0.2452883936E+02   0.1482031621E-04   0.1482031621E-04  -0.5269262773E-17  -0.4496331483E-14   0.3363060553E-15
   0.1750000000E+01   0.0000000000E+00  -0.1762672091E-15   0.2452883936E+02   0.1482031608E-04   0.1482031608E-04  -0.8047681290E-14  -0.6441089411E-14   0.1165089405E-14
   0.1750000000E+01   0.7590130018E+00  -0.1283579256E-16   0.2452883936E+02   0.1482031544E-04   0.1482031543E-04  -0.6512510727E-14   0.7294514495E-14   0.2100591949E-15
   0.0000000000E+00   0.7590130018E+00   0.2884283089E-16   0.2452883936E+02   0.1482031521E-04   0.1482031521E-04   0.6070155038E-14   0.7443568435E-15   0.2031958283E-14
   0.0000000000E+00   0.0000000000E+00   0.7590130018E+00   0.2452883936E+02   0.1482031511E-04   0.1482031511E-04   0.7740645416E-16   0.8250354878E-15  -0.1370760086E-17
   0.1750000000E+01   0.0000000000E+00   0.7590130018E+00   0.2452883936E+02   0.1482031611E-04   0.1482031611E-04   0.8580355742E-14  -0.5887814702E-14  -0.5543103935E-15
   0.1750000000E+01   0.7590130018E+00   0.7590130018E+00   0.2452883936E+02   0.1482031567E-04   0.1482031567E-04   0.8949336067E-14   0.8957738387E-14  -0.1509340604E-14
   0.0000000000E+00   0.7590130018E+00   0.7590130018E+00   0.2452883936E+02   0.1482031699E-04   0.1482031699E-04  -0.3391806466E-14  -0.2280917567E-14   0.1694281467E-14
   0.3500000000E+01   0.0000000000E+00  -0.8732385440E-16   0.2452883936E+02   0.1482031534E-04   0.1482031533E-04  -0.1346900129E-14   0.2028883642E-14  -0.1591302830E-14
   0.3500000000E+01   0.7590130018E+00  -0.3074629224E-15   0.2452883936E+02   0.1482031681E-04   0.1482031681E-04  -0.4351983303E-14  -0.6395666663E-14  -0.9363140754E-15
   0.3500000000E+01   0.0000000000E+00   0.7590130018E+00   0.2452883936E+02   0.1482031556E-04   0.1482031556E-04   0.7038141381E-15  -0.2185933911E-14  -0.1199813490E-15
   0.3500000000E+01   0.7590130018E+00   0.7590130018E+00   0.2452883935E+02   0.1482031576E-04   0.1482031576E-04   0.4910987710E-14  -0.4394446430E-16   0.5350074050E-15
     1     2     3     4     5     6     7     8
     2     9    10     3     6    11    12     7
 VARIABLES = X,Y,Z,S11,S22,S33,S12,S13,S23
 ZONE, T="0.6000D+01" F=FEPOINT, I=   12 J=    2 ET=BRICK
   0.0000000000E+00   0.0000000000E+00   0.0000000000E+00   0.3027289030E+02   0.6987125282E-05   0.6987125289E-05  -0.4470405893E-16   0.4210455667E-14   0.3678490743E-16
   0.1900000000E+01   0.0000000000E+00   0.1326762747E-15   0.3027289030E+02   0.6987124605E-05   0.6987124602E-05  -0.8746029034E-15  -0.1038022490E-14  -0.7714330050E-15
   0.1900000000E+01   0.7291274411E+00   0.1852927923E-16   0.3027289030E+02   0.6987125248E-05   0.6987125251E-05   0.6989083934E-15  -0.2995822148E-16  -0.1377170297E-14
   0.0000000000E+00   0.7291274411E+00   0.1165461030E-16   0.3027289030E+02   0.6987124631E-05   0.6987124633E-05   0.3209212535E-14  -0.1326774969E-14   0.2126965263E-14
   0.0000000000E+00   0.0000000000E+00   0.7291274411E+00   0.3027289030E+02   0.6987125712E-05   0.6987125712E-05  -0.5484199300E-16  -0.5797697760E-14  -0.1549397357E-14
   0.1900000000E+01   0.0000000000E+00   0.7291274411E+00   0.3027289030E+02   0.6987124696E-05   0.6987124694E-05  -0.3484140273E-14   0.1899839714E-14   0.9319799758E-15
   0.1900000000E+01   0.7291274411E+00   0.7291274411E+00   0.3027289029E+02   0.6987125131E-05   0.6987125135E-05  -0.4806745896E-14  -0.5206892463E-14   0.3262426840E-15
   0.0000000000E+00   0.7291274411E+00   0.7291274411E+00   0.3027289029E+02   0.6987125153E-05   0.6987125147E-05  -0.5288413369E-14   0.5929269702E-14   0.5407829989E-15
   0.3800000000E+01   0.0000000000E+00  -0.1657280818E-15   0.3027289030E+02   0.6987124402E-05   0.6987124409E-05   0.4814725871E-15  -0.6816508871E-14   0.4174040990E-14
   0.3800000000E+01   0.7291274411E+00   0.4174983674E-15   0.3027289029E+02   0.6987124565E-05   0.6987124558E-05   0.3745785866E-15   0.9722121942E-14   0.3770629198E-14
   0.3800000000E+01   0.0000000000E+00   0.7291274411E+00   0.3027289029E+02   0.6987125763E-05   0.6987125769E-05   0.3770119995E-15   0.9067368964E-14  -0.3296165217E-14
   0.3800000000E+01   0.7291274411E+00   0.7291274411E+00   0.3027289029E+02   0.6987124246E-05   0.6987124237E-05   0.2965372130E-14  -0.7887791213E-14  -0.3699577009E-14
     1     2     3     4     5     6     7     8
     2     9    10     3     6    11    12     7
 VARIABLES = X,Y,Z,S11,S22,S33,S12,S13,S23
 ZONE, T="0.7000D+01" F=FEPOINT, I=   12 J=    2 ET=BRICK
   0.0000000000E+00   0.0000000000E+00   0.0000000000E+00   0.3635078686E+02   0.3505348145E-05   0.3505348145E-05  -0.1868986316E-16   0.2384414180E-14   0.8767156347E-15
   0.2050000000E+01   0.0000000000E+00   0.1036017242E-15   0.3635078686E+02   0.3505348130E-05   0.3505348131E-05  -0.1833683614E-14  -0.1077395664E-14  -0.1656535027E-14
   0.2050000000E+01   0.7026489708E+00  -0.1392171405E-15   0.3635078685E+02   0.3505348828E-05   0.3505348830E-05  -0.1779980751E-14   0.3256517569E-14   0.6005132854E-15
   0.0000000000E+00   0.7026489708E+00   0.1295693883E-15   0.3635078685E+02   0.3505347965E-05   0.3505347965E-05  -0.7868930467E-14  -0.7998523215E-14  -0.3109405870E-15
   0.0000000000E+00   0.0000000000E+00   0.7026489708E+00   0.3635078685E+02   0.3505348502E-05   0.3505348500E-05   0.3354821245E-15  -0.1888126245E-15  -0.3506884589E-15
   0.2050000000E+01   0.0000000000E+00   0.7026489708E+00   0.3635078685E+02   0.3505348687E-05   0.3505348685E-05   0.1942549131E-14   0.2429140636E-15   0.3147028737E-15
   0.2050000000E+01   0.7026489708E+00   0.7026489708E+00   0.3635078685E+02   0.3505348589E-05   0.3505348589E-05   0.1417671078E-14   0.5951033959E-16   0.2571751186E-14
   0.0000000000E+00   0.7026489708E+00   0.7026489708E+00   0.3635078685E+02   0.3505348504E-05   0.3505348502E-05   0.8114533528E-14   0.3994338247E-14  -0.1538344680E-14
   0.4100000000E+01   0.0000000000E+00   0.2115253488E-16   0.3635078686E+02   0.3505348455E-05   0.3505348457E-05  -0.3450855387E-15  -0.3957303955E-14   0.1637777409E-14
   0.4100000000E+01   0.7026489708E+00   0.2635395904E-15   0.3635078685E+02   0.3505348426E-05   0.3505348425E-05   0.7612560789E-14   0.1137446528E-13  -0.1034290314E-15
   0.4100000000E+01   0.0000000000E+00   0.7026489708E+00   0.3635078685E+02   0.3505348960E-05   0.3505348963E-05  -0.7365426903E-15   0.1256542303E-14  -0.1591038380E-14
   0.4100000000E+01   0.7026489708E+00   0.7026489708E+00   0.3635078685E+02   0.3505348335E-05   0.3505348334E-05  -0.9565350197E-14  -0.7012410636E-14  -0.3332244820E-14
     1     2     3     4     5     6     7     8
     2     9    10     3     6    11    12     7
 VARIABLES = X,Y,Z,S11,S22,S33,S12,S13,S23
 ZONE, T="0.8000D+01" F=FEPOINT, I=   12 J=    2 ET=BRICK
   0.0000000000E+00   0.0000000000E+00   0.0000000000E+00   0.4276872275E+02   0.1852686985E-05   0.1852686983E-05  -0.3045190445E-15  -0.1695334729E-14  -0.1163058528E-15
   0.2200000000E+01   0.0000000000E+00  -0.6687003367E-16   0.4276872275E+02   0.1852688147E-05   0.1852688151E-05  -0.3614828377E-14  -0.2303126107E-14   0.4449348539E-15
   0.2200000000E+01   0.6789886336E+00   0.4204525125E-17   0.4276872274E+02   0.1852687270E-05   0.1852687268E-05  -0.3913964072E-14   0.4051465245E-14   0.1172000758E-14
   0.0000000000E+00   0.6789886336E+00  -0.1064010179E-16   0.4276872274E+02   0.1852687763E-05   0.1852687766E-05  -0.1454116766E-14  -0.5027632401E-15   0.1578487430E-15
   0.0000000000E+00   0.0000000000E+00   0.6789886336E+00   0.4276872274E+02   0.1852687117E-05   0.1852687115E-05  -0.4561641469E-15   0.3100461168E-14   0.4509959027E-15
   0.2200000000E+01   0.0000000000E+00   0.6789886336E+00   0.4276872274E+02   0.1852687883E-05   0.1852687887E-05   0.7631897931E-16   0.9098550100E-15  -0.1061731068E-14
   0.2200000000E+01   0.6789886336E+00   0.6789886336E+00   0.4276872274E+02   0.1852687006E-05   0.1852687005E-05   0.1206656303E-14   0.2618092569E-14  -0.3346651633E-15
   0.0000000000E+00   0.6789886336E+00   0.6789886336E+00   0.4276872274E+02   0.1852687895E-05   0.1852687898E-05   0.2032458647E-14  -0.4407257528E-14   0.7251504983E-15
   0.4400000000E+01   0.0000000000E+00  -0.8492900358E-16   0.4276872274E+02   0.1852687804E-05   0.1852687806E-05  -0.7966714937E-15   0.1842387063E-14   0.5900692881E-15
   0.4400000000E+01   0.6789886336E+00  -0.2051186327E-16   0.4276872274E+02   0.1852687993E-05   0.1852687997E-05  -0.2453451619E-15  -0.5195146718E-14   0.1516853130E-14
   0.4400000000E+01   0.0000000000E+00   0.6789886336E+00   0.4276872274E+02   0.1852687829E-05   0.1852687827E-05  -0.2209067848E-15   0.3472553399E-14  -0.1529406855E-14
   0.4400000000E+01   0.6789886336E+00   0.6789886336E+00   0.4276872273E+02   0.1852688018E-05   0.1852688017E-05  -0.4488549310E-15  -0.4157397782E-14  -0.6026230126E-15
     1     2     3     4     5     6     7     8
     2     9    10     3     6    11    12     7
 VARIABLES = X,Y,Z,S11,S22,S33,S12,S13,S23
 ZONE, T="0.9000D+01" F=FEPOINT, I=   12 J=    2 ET=BRICK
   0.0000000000E+00   0.0000000000E+00   0.0000000000E+00   0.4952909102E+02   0.1023565730E-05   0.1023565732E-05  -0.2474371276E-15   0.8008687111E-14   0.8459625843E-15
   0.2350000000E+01   0.0000000000E+00   0.1805627052E-15   0.4952909102E+02   0.1023564538E-05   0.1023564530E-05   0.4563605157E-14   0.6350926963E-15  -0.1830916381E-14
   0.2350000000E+01   0.6576908986E+00  -0.1058534034E-15   0.4952909101E+02   0.1023566583E-05   0.1023566589E-05   0.4322076315E-14  -0.3104576746E-15  -0.2321208064E-14
   0.0000000000E+00   0.6576908986E+00   0.1411234305E-15   0.4952909101E+02   0.1023565394E-05   0.1023565389E-05  -0.1122523648E-14  -0.9956029061E-14   0.5410638821E-15
   0.0000000000E+00   0.0000000000E+00   0.6576908986E+00   0.4952909101E+02   0.1023565982E-05   0.1023565987E-05  -0.6336854740E-16  -0.8437824463E-14  -0.4272526288E-15
   0.2350000000E+01   0.0000000000E+00   0.6576908986E+00   0.4952909101E+02   0.1023564401E-05   0.1023564396E-05  -0.4970615377E-14   0.5910890563E-14   0.1997762772E-14
   0.2350000000E+01   0.6576908986E+00   0.6576908986E+00   0.4952909101E+02   0.1023566117E-05   0.1023566125E-05  -0.4708521157E-14  -0.4328966176E-14   0.1507471088E-14
   0.0000000000E+00   0.6576908986E+00   0.6576908986E+00   0.4952909101E+02   0.1023564824E-05   0.1023564821E-05  -0.1669826385E-15   0.8959778813E-14  -0.7321513308E-15
   0.4700000000E+01   0.0000000000E+00  -0.3144952970E-15   0.4952909102E+02   0.1023567298E-05   0.1023567308E-05  -0.5024942079E-15  -0.1618727813E-13   0.4121395799E-14
   0.4700000000E+01   0.6576908986E+00   0.3154145375E-15   0.4952909101E+02   0.1023564216E-05   0.1023564205E-05  -0.1104653712E-15   0.1460297666E-13   0.3645513805E-14
   0.4700000000E+01   0.0000000000E+00   0.6576908986E+00   0.4952909101E+02   0.1023566771E-05   0.1023566784E-05   0.1356361844E-14   0.1081082917E-13  -0.2812665370E-14
   0.4700000000E+01   0.6576908986E+00   0.6576908986E+00   0.4952909101E+02   0.1023563854E-05   0.1023563845E-05   0.1984164375E-14  -0.1234984821E-13  -0.3288547363E-14
     1     2     3     4     5     6     7     8
     2     9    10     3     6    11    12     7
 VARIABLES = X,Y,Z,S11,S22,S33,S12,S13,S23
 ZONE, T="0.1000D+02" F=FEPOINT, I=   12 J=    2 ET=BRICK
   0.0000000000E+00   0.0000000000E+00   0.0000000000E+00   0.5663156280E+02   0.5874560969E-06   0.5874561024E-06   0.1398342937E-15   0.1207645750E-14   0.9911231413E-15
   0.2500000000E+01   0.0000000000E+00   0.2629688186E-16   0.5663156280E+02   0.5874556451E-06   0.5874556417E-06   0.2690567708E-14   0.1900491821E-15  -0.1307142373E-14
   0.2500000000E+01   0.6383971140E+00  -0.1767520782E-15   0.5663156279E+02   0.5874565016E-06   0.5874565034E-06   0.3699464912E-14   0.2022770302E-15  -0.1046683528E-14
   0.0000000000E+00   0.6383971140E+00   0.1400887112E-15   0.5663156280E+02   0.5874542236E-06   0.5874542185E-06   0.1505616395E-14  -0.1037527947E-13   0.2059888921E-14
   0.0000000000E+00   0.0000000000E+00   0.6383971140E+00   0.5663156280E+02   0.5874563888E-06   0.5874563907E-06  -0.4051222225E-15  -0.3645432073E-14  -0.2045851001E-14
   0.2500000000E+01   0.0000000000E+00   0.6383971140E+00   0.5663156279E+02   0.5874556712E-06   0.5874556683E-06   0.3953975013E-14  -0.4313836006E-15   0.1241168473E-14
   0.2500000000E+01   0.6383971140E+00   0.6383971140E+00   0.5663156279E+02   0.5874560588E-06   0.5874560610E-06   0.3740981298E-14   0.3697452203E-14   0.1501627317E-14
   0.0000000000E+00   0.6383971140E+00   0.6383971140E+00   0.5663156279E+02   0.5874555365E-06   0.5874555279E-06  -0.4503060788E-15   0.1057913872E-13  -0.9770852211E-15
   0.5000000000E+01   0.0000000000E+00  -0.2562172962E-16   0.5663156280E+02   0.5874558217E-06   0.5874558208E-06  -0.1941560014E-14  -0.3236057386E-14  -0.1728703617E-15
   0.5000000000E+01   0.6383971140E+00  -0.4767562723E-16   0.5663156279E+02   0.5874557309E-06   0.5874557283E-06  -0.1289547708E-14   0.5106420412E-14  -0.1226818915E-16
   0.5000000000E+01   0.0000000000E+00   0.6383971140E+00   0.5663156279E+02   0.5874560207E-06   0.5874560196E-06  -0.1361802862E-14   0.3741548718E-15  -0.3906662394E-15
   0.5000000000E+01   0.6383971140E+00   0.6383971140E+00   0.5663156279E+02   0.5874551602E-06   0.5874551574E-06  -0.1742606434E-14  -0.8857647432E-14  -0.2300640669E-15
     1     2     3     4     5     6     7     8
     2     9    10     3     6    11    12     7
 VARIABLES = X,Y,Z,S11,S22,S33,S12,S13,S23
 ZONE, T="0.1100D+02" F=FEPOINT, I=   12 J=    2 ET=BRICK
   0.0000000000E+00   0.0000000000E+00   0.0000000000E+00   0.5663156229E+02   0.2157760663E-07   0.2157761222E-07   0.3467415945E-15  -0.5922055167E-14  -0.1064255905E-14
   0.2500000000E+01   0.0000000000E+00  -0.1515963402E-15   0.5663156229E+02   0.2157822212E-07   0.2157821553E-07  -0.4886297420E-15  -0.2711584282E-14   0.7805038996E-15
   0.2500000000E+01   0.6383971138E+00  -0.4177372333E-16   0.5663156228E+02   0.2157856335E-07   0.2157856312E-07  -0.3241658644E-15   0.3792590034E-14  -0.1689217951E-14
   0.0000000000E+00   0.6383971138E+00  -0.1685448367E-15   0.5663156228E+02   0.2157730297E-07   0.2157730686E-07   0.1607492077E-13   0.2186266216E-14   0.2431497633E-14
   0.0000000000E+00   0.0000000000E+00   0.6383971138E+00   0.5663156228E+02   0.2157824889E-07   0.2157824285E-07  -0.1851042831E-16  -0.1415382144E-14  -0.1209337191E-14
   0.2500000000E+01   0.0000000000E+00   0.6383971138E+00   0.5663156228E+02   0.2157664476E-07   0.2157664675E-07   0.3744665501E-14  -0.4742296329E-14   0.4548008596E-15
   0.2500000000E+01   0.6383971138E+00   0.6383971138E+00   0.5663156227E+02   0.2157792404E-07   0.2157793240E-07  -0.6064420071E-15   0.1538534824E-14  -0.2014920991E-14
   0.0000000000E+00   0.6383971138E+00   0.6383971138E+00   0.5663156228E+02   0.2157869812E-07   0.2157869037E-07  -0.1609856596E-13   0.7755805128E-14   0.2286416346E-14
   0.5000000000E+01   0.0000000000E+00   0.1305516710E-15   0.5663156229E+02   0.2157665776E-07   0.2157666236E-07   0.9875003498E-16   0.9249880377E-14   0.1031196529E-15
   0.5000000000E+01   0.6383971138E+00   0.1376373919E-15   0.5663156228E+02   0.2157677855E-07   0.2157678144E-07  -0.1530050139E-13   0.3623570143E-14   0.8960791175E-15
   0.5000000000E+01   0.0000000000E+00   0.6383971138E+00   0.5663156228E+02   0.2157888185E-07   0.2157887812E-07  -0.2111004366E-14   0.6817832588E-15  -0.5190944830E-15
   0.5000000000E+01   0.6383971138E+00   0.6383971138E+00   0.5663156227E+02   0.2157774705E-07   0.2157774161E-07   0.5266836154E-14  -0.6454079187E-14   0.2738649816E-15
     1     2     3     4     5     6     7     8
     2     9    10     3     6    11    12     7
 VARIABLES = X,Y,Z,S11,S22,S33,S12,S13,S23
 ZONE, T="0.1200D+02" F=FEPOINT, I=   12 J=    2 ET=BRICK
   0.0000000000E+00   0.0000000000E+00   0.0000000000E+00   0.5663156227E+02  -0.2272949796E-12  -0.2266315594E-12  -0.1655382693E-15  -0.1510071667E-14  -0.4585382064E-15
   0.2500000000E+01   0.0000000000E+00  -0.5701099631E-16   0.5663156227E+02   0.5148432554E-12   0.5123673374E-12   0.1078934479E-15  -0.1767800933E-14   0.1056056534E-14
   0.2500000000E+01   0.6383971138E+00   0.1135042681E-15   0.5663156226E+02  -0.2241241894E-12  -0.2291448350E-12   0.1629768133E-14   0.1435589037E-14  -0.2259500857E-14
   0.0000000000E+00   0.6383971138E+00  -0.8675702807E-16   0.5663156226E+02  -0.2928927516E-13  -0.2794399741E-13   0.1743753447E-13   0.6658144759E-14   0.2147608606E-14
   0.0000000000E+00   0.0000000000E+00   0.6383971138E+00   0.5663156226E+02  -0.2837866532E-13  -0.2873913136E-13   0.2814081483E-15  -0.7305210191E-14  -0.7124611492E-15
   0.2500000000E+01   0.0000000000E+00   0.6383971138E+00   0.5663156226E+02  -0.2275226320E-12  -0.2261773543E-12  -0.6374751777E-15   0.5568799579E-15   0.7301093990E-15
   0.2500000000E+01   0.6383971138E+00   0.6383971138E+00   0.5663156225E+02  -0.2843966449E-13  -0.2963911431E-13  -0.4220994911E-15  -0.1915799179E-14  -0.2585447991E-14
   0.0000000000E+00   0.6383971138E+00   0.6383971138E+00   0.5663156226E+02  -0.8172277876E-13  -0.8140138720E-13  -0.1895842707E-13   0.2545161308E-14   0.1893685663E-14
   0.5000000000E+01   0.0000000000E+00  -0.1292413287E-15   0.5663156227E+02  -0.2272949795E-12  -0.2266315594E-12  -0.1214882799E-14  -0.3012179699E-14   0.1311190790E-14
   0.5000000000E+01   0.6383971138E+00   0.6436917941E-16   0.5663156226E+02  -0.2928927516E-13  -0.2794399740E-13  -0.1577420616E-13  -0.3518174515E-14   0.3593644335E-14
   0.5000000000E+01   0.0000000000E+00   0.6383971138E+00   0.5663156226E+02  -0.2837866532E-13  -0.2873913136E-13  -0.1124235657E-14   0.7432320605E-14  -0.1720912271E-14
   0.5000000000E+01   0.6383971138E+00   0.6383971138E+00   0.5663156225E+02  -0.8172277876E-13  -0.8140138719E-13   0.1854635093E-13  -0.6107967497E-14   0.5615412741E-15
     1     2     3     4     5     6     7     8
     2     9    10     3     6    11    12     7
 VARIABLES = X,Y,Z,S11,S22,S33,S12,S13,S23
 ZONE, T="0.1300D+02" F=FEPOINT, I=   12 J=    2 ET=BRICK
   0.0000000000E+00   0.0000000000E+00   0.0000000000E+00   0.5663156227E+02  -0.2442392787E-12  -0.2451880671E-12  -0.4615386819E-15   0.8101487765E-14   0.1735891855E-14
   0.2500000000E+01   0.0000000000E+00   0.2423199632E-15   0.5663156227E+02  -0.3740333989E-12  -0.3741588224E-12  -0.5350745128E-15   0.6708161673E-15  -0.1495769259E-14
   0.2500000000E+01   0.6383971138E+00  -0.1638798399E-16   0.5663156226E+02  -0.1062138895E-13  -0.6165195950E-14  -0.1261712269E-14   0.1602620537E-14  -0.1753317829E-14
   0.0000000000E+00   0.6383971138E+00   0.2803468872E-15   0.5663156226E+02  -0.3405678549E-12  -0.3445340324E-12  -0.2386768295E-14  -0.1077653340E-13   0.2924299956E-15
   0.0000000000E+00   0.0000000000E+00   0.6383971138E+00   0.5663156226E+02  -0.7443730010E-12  -0.7395527664E-12   0.2207660555E-15  -0.5655615502E-14  -0.1922338150E-15
   0.2500000000E+01   0.0000000000E+00   0.6383971138E+00   0.5663156226E+02  -0.4002509018E-12  -0.4008882684E-12   0.1986343527E-14   0.7999289938E-15   0.1885869610E-14
   0.2500000000E+01   0.6383971138E+00   0.6383971138E+00   0.5663156225E+02   0.8883957151E-13   0.9278382141E-13   0.4488236784E-14   0.2466973879E-14   0.1628321040E-14
   0.0000000000E+00   0.6383971138E+00   0.6383971138E+00   0.5663156226E+02  -0.7116946839E-12  -0.7098918385E-12   0.1453868614E-14   0.6104278611E-14  -0.1635695674E-14
   0.5000000000E+01   0.0000000000E+00   0.1162347909E-15   0.5663156227E+02  -0.5555819858E-12  -0.5560650566E-12  -0.4775064241E-15  -0.6599575347E-14   0.3886941522E-15
   0.5000000000E+01   0.6383971138E+00   0.1817102953E-15   0.5663156226E+02   0.5216076845E-12   0.5252335686E-12  -0.5552323970E-17   0.6830301887E-14   0.6968857823E-15
   0.5000000000E+01   0.0000000000E+00   0.6383971138E+00   0.5663156226E+02   0.1402366640E-12   0.1378057658E-12  -0.1882949471E-14   0.7415753571E-14  -0.7146746898E-15
   0.5000000000E+01   0.6383971138E+00   0.6383971138E+00   0.5663156225E+02   0.1503671239E-12   0.1520451807E-12   0.1887734485E-14  -0.8321803438E-14  -0.4064830597E-15
     1     2     3     4     5     6     7     8
     2     9    10     3     6    11    12     7
 VARIABLES = X,Y,Z,S11,S22,S33,S12,S13,S23
 ZONE, T="0.1400D+02" F=FEPOINT, I=   12 J=    2 ET=BRICK
   0.0000000000E+00   0.0000000000E+00   0.0000000000E+00   0.5663156227E+02   0.5479220416E-12   0.5502551593E-12  -0.2812256229E-15   0.4203079282E-14   0.1837988703E-14