 VARIABLES = X,Y,Z,S11,S22,S33,S12,S13,S23
 ZONE, T="0.1000D-02" F=FEPOINT, I=   12 J=    2 ET=BRICK
   0.0000000000E+00   0.0000000000E+00   0.0000000000E+00   0.3796883151E+00   0.3919963910E+00   0.3719279842E+00  -0.4945301003E-05   0.5813855078E-02   0.6062227104E-02
   0.1000084596E+01   0.0000000000E+00   0.3145404353E-03  -0.5062508474E+00  -0.5158573629E+00  -0.5159040698E+00   0.3095551042E-02   0.8836539346E-03  -0.9975251924E-02
   0.1000394091E+01   0.9996695474E+00  -0.6834921087E-03   0.1140204468E+01   0.1130577854E+01   0.1163753945E+01   0.4815720213E-04  -0.1697217704E-02   0.2117900522E-02
   0.0000000000E+00   0.1000666312E+01   0.6077145299E-03   0.1968760204E+01   0.1971822056E+01   0.1974153105E+01  -0.1343819694E-01  -0.2425468105E-01  -0.2891276498E-01
   0.0000000000E+00   0.0000000000E+00   0.9996628411E+00  -0.2631545014E+01  -0.2698792777E+01  -0.2648626903E+01   0.7994559820E-05   0.2548090741E-02   0.1737840773E-01
   0.1000394170E+01   0.0000000000E+00   0.9999825813E+00   0.6984368753E+00   0.7130645006E+00   0.6887727050E+00  -0.1154881401E-01   0.7608691121E-02   0.6579688880E-02
   0.9992387444E+00   0.1000881571E+01   0.1000641270E+01   0.2342506051E+01   0.2357187110E+01   0.2366059477E+01  -0.2033062657E-03  -0.3436962905E-01   0.1873866810E-01
   0.0000000000E+00   0.9971612174E+00   0.1001396691E+01  -0.3264719425E+01  -0.3297030836E+01  -0.3224508483E+01   0.5019228826E-01   0.3353128958E-04  -0.1787393149E-01
   0.2000300000E+01   0.0000000000E+00  -0.4435780451E-03   0.1315168008E+01   0.1311363917E+01   0.1330586256E+01  -0.6756208109E-05  -0.1032031195E-01   0.3023488624E-01
   0.2000300000E+01   0.1000057889E+01   0.2583117206E-02  -0.5886269422E+01  -0.5880788795E+01  -0.5997656065E+01   0.7375628927E-02   0.4427056472E-01   0.2418986331E-01
   0.2000300000E+01   0.0000000000E+00   0.1000569876E+01   0.2259890596E+00   0.2190174893E+00   0.2507235139E+00   0.2303981060E-04   0.6618856358E-02  -0.3749143014E-01
   0.2000300000E+01   0.9994336599E+00   0.9968175314E+00  -0.4758012644E+01  -0.4799848388E+01  -0.4903986954E+01  -0.2750153270E-01  -0.4617850453E-01  -0.4395092931E-01
     1     2     3     4     5     6     7     8
     2     9    10     3     6    11    12     7
