 VARIABLES = X,Y,Z,DU1,DU2,DU3,U1,U2,U3,S11,S22,S33,S12,S13,S23,Vf
 ZONE, T="0.6000D-01" F=FEPOINT, I= 4014 J= 2960 ET=BRICK
  -0.2179732320E+00   0.2006000030E+00   0.0000000000E+00   0.0000000000E+00   0.2000000000E-04   0.0000000000E+00   0.0000000000E+00   0.5800000000E-03   0.0000000000E+00   0.1343427990E+01   0.3381961254E+01   0.1405494991E+01  -0.2505102689E+00   0.5738544856E-13   0.1784580163E-12   0.0000000000E+00
  -0.2179201329E+00   0.1811513986E+00   0.0000000000E+00   0.1236327671E-05   0.2047229315E-04   0.0000000000E+00   0.1121277095E-04   0.5296423095E-03   0.0000000000E+00   0.1203416073E+01   0.3395898082E+01   0.1383086029E+01  -0.2081179318E+00  -0.5718838251E-13  -0.3089964693E-12   0.0000000000E+00
  -0.1983808413E+00   0.1805461913E+00   0.0000000000E+00   0.1289525310E-05   0.2050745929E-04   0.0000000000E+00   0.6907167143E-05   0.5273308302E-03   0.0000000000E+00   0.1263679139E+01   0.3444218438E+01   0.1415879537E+01  -0.1358255573E+00  -0.6009863962E-12  -0.7844805421E-12   0.0000000000E+00
  -0.1983523220E+00   0.2006000030E+00   0.0000000000E+00   0.0000000000E+00   0.2000000000E-04   0.0000000000E+00   0.0000000000E+00   0.5800000000E-03   0.0000000000E+00   0.1379994860E+01   0.3438301493E+01   0.1434764337E+01  -0.1642617264E+00  -0.2044130248E-12  -0.5116473307E-13   0.0000000000E+00
  -0.2179732320E+00   0.2006000030E+00   0.1999999960E-01   0.0000000000E+00   0.2000000000E-04  -0.3238294920E-16   0.0000000000E+00   0.5800000000E-03   0.7671763546E-16   0.1343427990E+01   0.3381961254E+01   0.1405494991E+01  -0.2505102689E+00   0.8431991050E-13  -0.1013024339E-11   0.0000000000E+00
  -0.2179201329E+00   0.1811513986E+00   0.1999999960E-01   0.1236327671E-05   0.2047229315E-04  -0.2789632594E-16   0.1121277095E-04   0.5296423095E-03   0.1139589098E-15   0.1203416073E+01   0.3395898082E+01   0.1383086029E+01  -0.2081179318E+00  -0.1454632158E-12  -0.2376406826E-11   0.0000000000E+00
  -0.1983808413E+00   0.1805461913E+00   0.1999999960E-01   0.1289525310E-05   0.2050745929E-04  -0.2348971781E-16   0.6907167142E-05   0.5273308302E-03   0.1185638683E-15   0.1263679139E+01   0.3444218438E+01   0.1415879537E+01  -0.1358255573E+00  -0.5477440275E-12  -0.2631214856E-11   0.0000000000E+00
  -0.1983523220E+00   0.2006000030E+00   0.1999999960E-01   0.0000000000E+00   0.2000000000E-04  -0.2862001401E-16   0.0000000000E+00   0.5800000000E-03   0.7745095431E-16   0.1379994860E+01   0.3438301493E+01   0.1434764337E+01  -0.1642617264E+00  -0.1942732848E-12  -0.1164569491E-11   0.0000000000E+00
  -0.2179500857E+00   0.1617904662E+00   0.0000000000E+00   0.2512125298E-05   0.2132620739E-04   0.0000000000E+00   0.1744519006E-04   0.4771229614E-03   0.0000000000E+00   0.9598378795E+00   0.3293270272E+01   0.1282958165E+01  -0.1178530619E+00  -0.6734586065E-12  -0.5363902694E-11   0.0000000000E+00
  -0.1984245577E+00   0.1605365059E+00   0.0000000000E+00   0.2245878957E-05   0.2117960862E-04   0.0000000000E+00   0.1026145153E-04   0.4732192464E-03   0.0000000000E+00   0.1076929312E+01   0.3333179028E+01   0.1327869163E+01  -0.8286821955E-01  -0.1267240443E-11  -0.5540054021E-11   0.0000000000E+00
  -0.2179500857E+00   0.1617904662E+00   0.1999999960E-01   0.2512125298E-05   0.2132620739E-04  -0.8455573558E-17   0.1744519006E-04   0.4771229614E-03   0.1525755277E-15   0.9598378794E+00   0.3293270272E+01   0.1282958165E+01  -0.1178530619E+00  -0.8016910904E-12  -0.5468360342E-11   0.0000000000E+00
  -0.1984245577E+00   0.1605365059E+00   0.1999999960E-01   0.2245878957E-05   0.2117960862E-04  -0.3483757651E-17   0.1026145153E-04   0.4732192464E-03   0.1554259712E-15   0.1076929312E+01   0.3333179028E+01   0.1327869162E+01  -0.8286821954E-01  -0.1191387503E-11  -0.5392635940E-11   0.0000000000E+00
  -0.2179817180E+00   0.1423961796E+00   0.0000000000E+00   0.3554901560E-05   0.2308018231E-04   0.0000000000E+00   0.1972909275E-04   0.4255613780E-03   0.0000000000E+00   0.7062381967E+00   0.2900196724E+01   0.1089483593E+01  -0.4574033627E-01  -0.1747605945E-11  -0.9568776709E-11   0.0000000000E+00
  -0.1985358631E+00   0.1406921764E+00   0.0000000000E+00   0.3100146949E-05   0.2271172817E-04   0.0000000000E+00   0.1161871917E-04   0.4213146792E-03   0.0000000000E+00   0.8792655801E+00   0.2962718701E+01   0.1158518543E+01  -0.7401976080E-01  -0.2286243743E-11  -0.8964752850E-11   0.0000000000E+00
  -0.2179817180E+00   0.1423961796E+00   0.1999999960E-01   0.3554901560E-05   0.2308018231E-04   0.1549699746E-16   0.1972909275E-04   0.4255613780E-03   0.1922405532E-15   0.7062381967E+00   0.2900196723E+01   0.1089483593E+01  -0.4574033627E-01  -0.1750085483E-11  -0.8086961577E-11   0.0000000000E+00
  -0.1985358631E+00   0.1406921764E+00   0.1999999960E-01   0.3100146949E-05   0.2271172817E-04   0.1977271366E-16   0.1161871917E-04   0.4213146792E-03   0.1851202758E-15   0.8792655800E+00   0.2962718701E+01   0.1158518543E+01  -0.7401976080E-01  -0.2144763109E-11  -0.7455953197E-11   0.0000000000E+00
  -0.2180484641E+00   0.1230568415E+00   0.0000000000E+00   0.4388057886E-05   0.2631647581E-04   0.0000000000E+00   0.1991988781E-04   0.3810640498E-03   0.0000000000E+00   0.4490901839E+00   0.2163104268E+01   0.7910434768E+00  -0.1871243044E-01  -0.2832109383E-11  -0.1038251568E-10   0.0000000000E+00
  -0.1986738963E+00   0.1208867590E+00   0.0000000000E+00   0.4090863334E-05   0.2583809018E-04   0.0000000000E+00   0.1305282982E-04   0.3760468776E-03   0.0000000000E+00   0.6656743947E+00   0.2295056682E+01   0.8962101377E+00  -0.1423831895E+00  -0.3428464377E-11  -0.8996606245E-11   0.0000000000E+00
  -0.2180484641E+00   0.1230568415E+00   0.1999999960E-01   0.4388057886E-05   0.2631647581E-04   0.2996731986E-16   0.1991988780E-04   0.3810640498E-03   0.2918884646E-15   0.4490901839E+00   0.2163104268E+01   0.7910434768E+00  -0.1871243044E-01  -0.2658706039E-11  -0.9599152326E-11   0.0000000000E+00
  -0.1986738963E+00   0.1208867590E+00   0.1999999960E-01   0.4090863334E-05   0.2583809018E-04   0.3044015539E-16   0.1305282982E-04   0.3760468776E-03   0.2808481556E-15   0.6656743947E+00   0.2295056682E+01   0.8962101377E+00  -0.1423831895E+00  -0.3198766268E-11  -0.8586652234E-11   0.0000000000E+00
  -0.2182160612E+00   0.1040107804E+00   0.0000000000E+00   0.4915325173E-05   0.3090372113E-04   0.0000000000E+00   0.1977651349E-04   0.3499226935E-03   0.0000000000E+00   0.2483842001E+00   0.1235911454E+01   0.4503175046E+00  -0.2212376616E-01  -0.3476035627E-11  -0.8786846567E-11   0.0000000000E+00
  -0.1990067975E+00   0.1015524531E+00   0.0000000000E+00   0.5075287883E-05   0.3029926817E-04   0.0000000000E+00   0.1667916883E-04   0.3436868612E-03   0.0000000000E+00   0.5043800719E+00   0.1455257539E+01   0.5962127935E+00  -0.2640135809E+00  -0.4095511854E-11  -0.7273496924E-11   0.0000000000E+00
  -0.2182160612E+00   0.1040107804E+00   0.1999999960E-01   0.4915325173E-05   0.3090372113E-04   0.2859880176E-16   0.1977651349E-04   0.3499226935E-03   0.3962904316E-15   0.2483842001E+00   0.1235911453E+01   0.4503175046E+00  -0.2212376616E-01  -0.3202834092E-11  -0.9564217479E-11   0.0000000000E+00
  -0.1990067975E+00   0.1015524531E+00   0.1999999960E-01   0.5075287883E-05   0.3029926817E-04   0.2779941947E-16   0.1667916883E-04   0.3436868612E-03   0.3739432517E-15   0.5043800719E+00   0.1455257539E+01   0.5962127935E+00  -0.2640135809E+00  -0.3772095748E-11  -0.8491647459E-11   0.0000000000E+00
  -0.2185131261E+00   0.8557055149E-01   0.0000000000E+00   0.4839318984E-05   0.3494129995E-04   0.0000000000E+00   0.1921657005E-04   0.3351513934E-03   0.0000000000E+00   0.1380906868E+00   0.4308865222E+00   0.1688627209E+00  -0.1517762407E-02  -0.3532021401E-11  -0.5894851715E-11   0.0000000000E+00
  -0.1996561815E+00   0.8332553684E-01   0.0000000000E+00   0.5151679400E-05   0.3417631981E-04   0.0000000000E+00   0.2125986175E-04   0.3279758166E-03   0.0000000000E+00   0.4468718269E+00   0.6823734915E+00   0.3411053257E+00  -0.3260926245E+00  -0.3648526961E-11  -0.4904840961E-11   0.0000000000E+00
  -0.2185131261E+00   0.8557055149E-01   0.1999999960E-01   0.4839318984E-05   0.3494129995E-04  -0.1595032595E-18   0.1921657005E-04   0.3351513934E-03   0.3625497096E-15   0.1380906868E+00   0.4308865222E+00   0.1688627209E+00  -0.1517762406E-02  -0.3223724818E-11  -0.6956009622E-11   0.0000000000E+00
  -0.1996561815E+00   0.8332553684E-01   0.1999999960E-01   0.5151679400E-05   0.3417631981E-04   0.1894559573E-17   0.2125986175E-04   0.3279758166E-03   0.3145748798E-15   0.4468718269E+00   0.6823734915E+00   0.3411053256E+00  -0.3260926245E+00  -0.3251926924E-11  -0.6167664873E-11   0.0000000000E+00
  -0.2188371610E+00   0.6790319203E-01   0.0000000000E+00   0.4477369115E-05   0.3689990196E-04   0.0000000000E+00   0.1633566051E-04   0.3326351291E-03   0.0000000000E+00  -0.7949223789E-02   0.1296572745E-01  -0.7940606196E-02   0.3348557598E-01  -0.3491853492E-11  -0.2274318688E-11   0.0000000000E+00
  -0.2005986766E+00   0.6710019697E-01   0.0000000000E+00   0.4216666002E-05   0.3600038169E-04   0.0000000000E+00   0.2061873852E-04   0.3258071834E-03   0.0000000000E+00   0.3421238043E+00   0.1659383589E+00   0.1421654969E+00  -0.2278923214E+00  -0.2817166163E-11  -0.1932776519E-11   0.0000000000E+00
  -0.2188371610E+00   0.6790319203E-01   0.1999999960E-01   0.4477369115E-05   0.3689990196E-04  -0.2624572677E-16   0.1633566051E-04   0.3326351291E-03   0.3768909663E-16  -0.7949223788E-02   0.1296572745E-01  -0.7940606196E-02   0.3348557598E-01  -0.2984244345E-11  -0.1601901013E-11   0.0000000000E+00
  -0.2005986766E+00   0.6710019697E-01   0.1999999960E-01   0.4216666001E-05   0.3600038169E-04  -0.1622654843E-16   0.2061873852E-04   0.3258071834E-03   0.4154218666E-17   0.3421238043E+00   0.1659383589E+00   0.1421654969E+00  -0.2278923214E+00  -0.2032026720E-11  -0.1491525382E-11   0.0000000000E+00
  -0.2187602535E+00   0.5036971473E-01   0.0000000000E+00   0.4533549510E-05   0.3695655297E-04   0.0000000000E+00   0.1386797251E-04   0.3327574774E-03   0.0000000000E+00  -0.1698521582E+00  -0.4129491544E-01  -0.4159194670E-01   0.4348270827E-01  -0.3667794786E-11   0.4688093669E-12   0.0000000000E+00
  -0.1999853841E+00   0.5036233494E-01   0.0000000000E+00   0.3581337236E-05   0.3630662032E-04   0.0000000000E+00   0.1103753515E-04   0.3260276189E-03   0.0000000000E+00   0.1581856806E+00   0.3805268990E-01   0.8530075439E-01  -0.1217066450E+00  -0.2791487643E-11   0.2927077420E-12   0.0000000000E+00
  -0.2187602535E+00   0.5036971473E-01   0.1999999960E-01   0.4533549510E-05   0.3695655297E-04   0.9724807403E-16   0.1386797251E-04   0.3327574774E-03  -0.8723324741E-15  -0.1698521582E+00  -0.4129491545E-01  -0.4159194670E-01   0.4348270827E-01  -0.2834961766E-11   0.2365893442E-11   0.0000000000E+00
  -0.1999853841E+00   0.5036233494E-01   0.1999999960E-01   0.3581337236E-05   0.3630662032E-04   0.1020994030E-15   0.1103753515E-04   0.3260276189E-03  -0.8054390184E-15   0.1581856806E+00   0.3805268990E-01   0.8530075439E-01  -0.1217066450E+00  -0.1304583698E-11   0.1903988412E-11   0.0000000000E+00
  -0.2372046110E+00   0.2006000030E+00   0.0000000000E+00   0.0000000000E+00   0.2000000000E-04   0.0000000000E+00   0.0000000000E+00   0.5800000000E-03   0.0000000000E+00   0.1307497411E+01   0.3338151812E+01   0.1378834847E+01  -0.3491803718E+00   0.3454875408E-12   0.2746550682E-12   0.0000000000E+00
  -0.2371155907E+00   0.1814988845E+00   0.0000000000E+00   0.1048221200E-05   0.2041475929E-04   0.0000000000E+00   0.1597008142E-04   0.5309127551E-03   0.0000000000E+00   0.1142053202E+01   0.3356617177E+01   0.1353140495E+01  -0.3019888726E+00   0.6460660157E-12  -0.7681879278E-13   0.0000000000E+00
  -0.2372046110E+00   0.2006000030E+00   0.1999999960E-01   0.0000000000E+00   0.2000000000E-04  -0.3509634158E-16   0.0000000000E+00   0.5800000000E-03   0.6465328175E-16   0.1307497411E+01   0.3338151812E+01   0.1378834847E+01  -0.3491803718E+00   0.3002487751E-12  -0.9595119097E-12   0.0000000000E+00
  -0.2371155907E+00   0.1814988845E+00   0.1999999960E-01   0.1048221200E-05   0.2041475929E-04  -0.2853527480E-16   0.1597008142E-04   0.5309127551E-03   0.9885508633E-16   0.1142053202E+01   0.3356617177E+01   0.1353140495E+01  -0.3019888726E+00   0.2500145124E-12  -0.2255888786E-11   0.0000000000E+00
  -0.2370989149E+00   0.1624297460E+00   0.0000000000E+00   0.2569254283E-05   0.2139771455E-04   0.0000000000E+00   0.2650583783E-04   0.4788902476E-03   0.0000000000E+00   0.8469060916E+00   0.3267432599E+01   0.1245258390E+01  -0.1802685934E+00   0.2644105669E-12  -0.5211224921E-11   0.0000000000E+00
  -0.2370989149E+00   0.1624297460E+00   0.1999999960E-01   0.2569254283E-05   0.2139771455E-04  -0.8462113938E-17   0.2650583783E-04   0.4788902476E-03   0.1376427264E-15   0.8469060916E+00   0.3267432599E+01   0.1245258390E+01  -0.1802685934E+00  -0.2931017153E-12  -0.5476279522E-11   0.0000000000E+00
  -0.2371028854E+00   0.1433395437E+00   0.0000000000E+00   0.3850143339E-05   0.2331843030E-04   0.0000000000E+00   0.3073143591E-04   0.4269492353E-03   0.0000000000E+00   0.5365823549E+00   0.2890005060E+01   0.1039879682E+01  -0.4170032131E-01  -0.7667072662E-12  -0.9974702647E-11   0.0000000000E+00
  -0.2371028854E+00   0.1433395437E+00   0.1999999960E-01   0.3850143339E-05   0.2331843030E-04   0.1302025014E-16   0.3073143591E-04   0.4269492353E-03   0.1839053199E-15   0.5365823549E+00   0.2890005060E+01   0.1039879682E+01  -0.4170032130E-01  -0.1152038467E-11  -0.8491290558E-11   0.0000000000E+00
  -0.2371318422E+00   0.1242726095E+00   0.0000000000E+00   0.4690756975E-05   0.2659465624E-04   0.0000000000E+00   0.3031908223E-04   0.3813867998E-03   0.0000000000E+00   0.2241296200E+00   0.2143592394E+01   0.7184888084E+00   0.7672294886E-01  -0.1870325447E-11  -0.1135326453E-10   0.0000000000E+00
  -0.2371318422E+00   0.1242726095E+00   0.1999999960E-01   0.4690756975E-05   0.2659465624E-04   0.2746001390E-16   0.3031908223E-04   0.3813867998E-03   0.2892248588E-15   0.2241296200E+00   0.2143592394E+01   0.7184888084E+00   0.7672294886E-01  -0.1954405486E-11  -0.1033055827E-10   0.0000000000E+00
  -0.2372095414E+00   0.1053544393E+00   0.0000000000E+00   0.4997910386E-05   0.3091293647E-04   0.0000000000E+00   0.2701165722E-04   0.3491523417E-03   0.0000000000E+00  -0.2921702939E-01   0.1185875486E+01   0.3507726234E+00   0.1660512711E+00  -0.2613570280E-11  -0.9806692735E-11   0.0000000000E+00
  -0.2372095414E+00   0.1053544393E+00   0.1999999960E-01   0.4997910386E-05   0.3091293647E-04   0.2642996412E-16   0.2701165722E-04   0.3491523417E-03   0.4027211681E-15  -0.2921702939E-01   0.1185875486E+01   0.3507726234E+00   0.1660512711E+00  -0.2466342794E-11  -0.1031853053E-10   0.0000000000E+00
  -0.2373400594E+00   0.8673458315E-01   0.0000000000E+00   0.4806236605E-05   0.3469231992E-04   0.0000000000E+00   0.2210839459E-04   0.3329915293E-03   0.0000000000E+00  -0.1793316378E+00   0.3715683568E+00   0.5472201915E-01   0.2189708490E+00  -0.3052077828E-11  -0.6470483843E-11   0.0000000000E+00
  -0.2373400594E+00   0.8673458315E-01   0.1999999960E-01   0.4806236605E-05   0.3469231992E-04  -0.2154623741E-17   0.2210839459E-04   0.3329915293E-03   0.3913154192E-15  -0.1793316378E+00   0.3715683568E+00   0.5472201914E-01   0.2189708490E+00  -0.2796573444E-11  -0.7478867883E-11   0.0000000000E+00
  -0.2374687650E+00   0.6846365934E-01   0.0000000000E+00   0.4827890938E-05   0.3631609574E-04   0.0000000000E+00   0.1749309682E-04   0.3287981402E-03   0.0000000000E+00  -0.2950039541E+00  -0.1438867110E-01  -0.1006666271E+00   0.1781628192E+00  -0.3764030905E-11  -0.2404831335E-11   0.0000000000E+00
  -0.2374687650E+00   0.6846365934E-01   0.1999999960E-01   0.4827890938E-05   0.3631609574E-04  -0.2951387201E-16   0.1749309682E-04   0.3287981402E-03   0.7600086343E-16  -0.2950039541E+00  -0.1438867110E-01  -0.1006666271E+00   0.1781628192E+00  -0.3381964167E-11  -0.1769648553E-11   0.0000000000E+00
  -0.2374812136E+00   0.5036357014E-01   0.0000000000E+00   0.5920679165E-05   0.3630704431E-04   0.0000000000E+00   0.1932974387E-04   0.3272623978E-03   0.0000000000E+00  -0.3914428773E+00  -0.6113826820E-01  -0.1247136946E+00   0.1246178946E+00  -0.4588294160E-11   0.5174167872E-12   0.0000000000E+00
  -0.2374812136E+00   0.5036357014E-01   0.1999999960E-01   0.5920679165E-05   0.3630704431E-04   0.8810951893E-16   0.1932974387E-04   0.3272623978E-03  -0.8464008938E-15  -0.3914428773E+00  -0.6113826820E-01  -0.1247136946E+00   0.1246178946E+00  -0.4032639755E-11   0.2435667069E-11   0.0000000000E+00
  -0.2561666070E+00   0.2006000030E+00   0.0000000000E+00   0.0000000000E+00   0.2000000000E-04   0.0000000000E+00   0.0000000000E+00   0.5800000000E-03   0.0000000000E+00   0.1242026470E+01   0.3260938366E+01   0.1330971221E+01  -0.4740399303E+00   0.3522649330E-12   0.1914255240E-12   0.0000000000E+00
  -0.2560805325E+00   0.1816711959E+00   0.0000000000E+00   0.1133297372E-05   0.2058723240E-04   0.0000000000E+00   0.2152220038E-04   0.5316736402E-03   0.0000000000E+00   0.1046733244E+01   0.3291047022E+01   0.1307239143E+01  -0.4311467937E+00   0.8557506216E-12  -0.2246869624E-12   0.0000000000E+00
  -0.2561666070E+00   0.2006000030E+00   0.1999999960E-01   0.0000000000E+00   0.2000000000E-04  -0.3179711349E-16   0.0000000000E+00   0.5800000000E-03   0.4901250943E-16   0.1242026470E+01   0.3260938366E+01   0.1330971221E+01  -0.4740399303E+00   0.2088435630E-12  -0.1035608374E-11   0.0000000000E+00
  -0.2560805325E+00   0.1816711959E+00   0.1999999960E-01   0.1133297372E-05   0.2058723240E-04  -0.2347794231E-16   0.2152220038E-04   0.5316736402E-03   0.8422964843E-16   0.1046733244E+01   0.3291047022E+01   0.1307239143E+01  -0.4311467937E+00   0.2768387432E-12  -0.2363113782E-11   0.0000000000E+00
  -0.2560441411E+00   0.1627461732E+00   0.0000000000E+00   0.2582051599E-05   0.2159948542E-04   0.0000000000E+00   0.3759985309E-04   0.4797177430E-03   0.0000000000E+00   0.7137786044E+00   0.3230722709E+01   0.1201040519E+01  -0.2899663672E+00   0.9813653584E-12  -0.5310179879E-11   0.0000000000E+00
  -0.2560441411E+00   0.1627461732E+00   0.1999999960E-01   0.2582051599E-05   0.2159948542E-04  -0.3824244822E-17   0.3759985309E-04   0.4797177430E-03   0.1238375632E-15   0.7137786044E+00   0.3230722709E+01   0.1201040519E+01  -0.2899663672E+00   0.8357622394E-13  -0.5579614555E-11   0.0000000000E+00
  -0.2560333134E+00   0.1438121791E+00   0.0000000000E+00   0.4100039634E-05   0.2365107500E-04   0.0000000000E+00   0.4506156934E-04   0.4265570215E-03   0.0000000000E+00   0.3542477100E+00   0.2902004121E+01   0.9986768550E+00  -0.8973617469E-01   0.2540749537E-12  -0.1035344387E-10   0.0000000000E+00
  -0.2560333134E+00   0.1438121791E+00   0.1999999960E-01   0.4100039634E-05   0.2365107500E-04   0.1462358204E-16   0.4506156934E-04   0.4265570215E-03   0.1694991357E-15   0.3542477100E+00   0.2902004121E+01   0.9986768550E+00  -0.8973617469E-01  -0.5645882502E-12  -0.8798504873E-11   0.0000000000E+00
  -0.2560432994E+00   0.1248879269E+00   0.0000000000E+00   0.5134032787E-05   0.2687723323E-04   0.0000000000E+00   0.4471058699E-04   0.3787006229E-03   0.0000000000E+00  -0.1065316407E-01   0.2194475156E+01   0.6688466819E+00   0.1182460390E+00  -0.8068786656E-12  -0.1219385570E-10   0.0000000000E+00
  -0.2560432994E+00   0.1248879269E+00   0.1999999960E-01   0.5134032787E-05   0.2687723323E-04   0.2670839968E-16   0.4471058699E-04   0.3787006229E-03   0.2738652014E-15  -0.1065316407E-01   0.2194475156E+01   0.6688466819E+00   0.1182460390E+00  -0.1283953674E-11  -0.1094173662E-10   0.0000000000E+00
  -0.2560795637E+00   0.1060341639E+00   0.0000000000E+00   0.5441852801E-05   0.3080718882E-04   0.0000000000E+00   0.3871642840E-04   0.3438796988E-03   0.0000000000E+00  -0.2918596320E+00   0.1242462122E+01   0.2901989356E+00   0.2903431340E+00  -0.1712961120E-11  -0.1074961565E-10   0.0000000000E+00
  -0.2560795637E+00   0.1060341639E+00   0.1999999960E-01   0.5441852801E-05   0.3080718882E-04   0.2347372833E-16   0.3871642840E-04   0.3438796988E-03   0.3908617386E-15  -0.2918596320E+00   0.1242462122E+01   0.2901989356E+00   0.2903431340E+00  -0.1792581632E-11  -0.1099547950E-10   0.0000000000E+00
  -0.2561396332E+00   0.8732255611E-01   0.0000000000E+00   0.5218100059E-05   0.3399237260E-04   0.0000000000E+00   0.2977273311E-04   0.3253646374E-03   0.0000000000E+00  -0.4321601279E+00   0.4151684218E+00  -0.6817785987E-02   0.3640770701E+00  -0.2499015902E-11  -0.7004204834E-11   0.0000000000E+00
  -0.2561396332E+00   0.8732255611E-01   0.1999999960E-01   0.5218100059E-05   0.3399237260E-04  -0.5634799810E-17   0.2977273311E-04   0.3253646374E-03   0.3945255617E-15  -0.4321601279E+00   0.4151684218E+00  -0.6817785990E-02   0.3640770701E+00  -0.2303536974E-11  -0.7951605471E-11   0.0000000000E+00
  -0.2561963421E+00   0.6877933821E-01   0.0000000000E+00   0.5479742057E-05   0.3507565689E-04   0.0000000000E+00   0.2301915970E-04   0.3193969569E-03   0.0000000000E+00  -0.4854724629E+00   0.1735237715E-01  -0.1461781435E+00   0.2631460646E+00  -0.3756525121E-11  -0.2410380842E-11   0.0000000000E+00
  -0.2561963421E+00   0.6877933821E-01   0.1999999960E-01   0.5479742057E-05   0.3507565689E-04  -0.3248639480E-16   0.2301915970E-04   0.3193969569E-03   0.1015143400E-15  -0.4854724629E+00   0.1735237715E-01  -0.1461781435E+00   0.2631460646E+00  -0.3358767193E-11  -0.1948558692E-11   0.0000000000E+00
  -0.2562116449E+00   0.5035151319E-01   0.0000000000E+00   0.7094287711E-05   0.3474860135E-04   0.0000000000E+00   0.2684385711E-04   0.3167638909E-03   0.0000000000E+00  -0.5203478133E+00  -0.4387269090E-01  -0.1652731823E+00   0.1602898182E+00  -0.4981316913E-11   0.7242836256E-12   0.0000000000E+00
  -0.2562116449E+00   0.5035151319E-01   0.1999999960E-01   0.7094287711E-05   0.3474860135E-04   0.8231301899E-16   0.2684385711E-04   0.3167638909E-03  -0.8010012061E-15  -0.5203478133E+00  -0.4387269090E-01  -0.1652731823E+00   0.1602898182E+00  -0.4412263736E-11   0.2396024153E-11   0.0000000000E+00
  -0.2749821250E+00   0.2006000030E+00   0.0000000000E+00   0.0000000000E+00   0.2000000000E-04   0.0000000000E+00   0.0000000000E+00   0.5800000000E-03   0.0000000000E+00   0.1157914087E+01   0.3111167388E+01   0.1259381209E+01  -0.6280900843E+00   0.9098526930E-13   0.5737514436E-13   0.0000000000E+00
  -0.2749163717E+00   0.1817504896E+00   0.0000000000E+00   0.1247992837E-05   0.2085659373E-04   0.0000000000E+00   0.2865226255E-04   0.5334200537E-03   0.0000000000E+00   0.9493295106E+00   0.3168128299E+01   0.1247275622E+01  -0.5918147926E+00   0.4134424780E-12  -0.4407912563E-12   0.0000000000E+00
  -0.2749821250E+00   0.2006000030E+00   0.1999999960E-01   0.0000000000E+00   0.2000000000E-04  -0.2475018491E-16   0.0000000000E+00   0.5800000000E-03   0.4450975173E-16   0.1157914087E+01   0.3111167388E+01   0.1259381209E+01  -0.6280900843E+00   0.1335136701E-13  -0.1107649184E-11   0.0000000000E+00
  -0.2749163717E+00   0.1817504896E+00   0.1999999960E-01   0.1247992837E-05   0.2085659373E-04  -0.1893116321E-16   0.2865226255E-04   0.5334200537E-03   0.8361004823E-16   0.9493295106E+00   0.3168128299E+01   0.1247275622E+01  -0.5918147926E+00   0.1125191085E-12  -0.2440252426E-11   0.0000000000E+00
  -0.2748770600E+00   0.1628952606E+00   0.0000000000E+00   0.2485702443E-05   0.2213378301E-04   0.0000000000E+00   0.5122930774E-04   0.4817328469E-03   0.0000000000E+00   0.5802154592E+00   0.3154247553E+01   0.1151193430E+01  -0.4444241770E+00   0.1131798687E-11  -0.5258651053E-11   0.0000000000E+00
  -0.2748770600E+00   0.1628952606E+00   0.1999999960E-01   0.2485702443E-05   0.2213378301E-04  -0.1627596446E-17   0.5122930774E-04   0.4817328469E-03   0.1203913019E-15   0.5802154592E+00   0.3154247553E+01   0.1151193430E+01  -0.4444241769E+00   0.3674043109E-12  -0.5547845684E-11   0.0000000000E+00
  -0.2748584262E+00   0.1440341174E+00   0.0000000000E+00   0.4337254353E-05   0.2421789703E-04   0.0000000000E+00   0.6348154588E-04   0.4269295507E-03   0.0000000000E+00   0.1567779971E+00   0.2892672333E+01   0.9558241931E+00  -0.2014549352E+00   0.1043512440E-11  -0.1034362987E-10   0.0000000000E+00
  -0.2748584262E+00   0.1440341174E+00   0.1999999960E-01   0.4337254353E-05   0.2421789703E-04   0.1729044428E-16   0.6348154588E-04   0.4269295507E-03   0.1578435381E-15   0.1567779971E+00   0.2892672333E+01   0.9558241931E+00  -0.2014549351E+00   0.5070301104E-13  -0.8855958931E-11   0.0000000000E+00
  -0.2748591392E+00   0.1251776688E+00   0.0000000000E+00   0.5792126295E-05   0.2742890875E-04   0.0000000000E+00   0.6411568458E-04   0.3756799214E-03   0.0000000000E+00  -0.2634775125E+00   0.2262374427E+01   0.6253070179E+00   0.9737831632E-01   0.1728705955E-12  -0.1272758123E-10   0.0000000000E+00
  -0.2748591392E+00   0.1251776688E+00   0.1999999960E-01   0.5792126295E-05   0.2742890875E-04   0.2898284760E-16   0.6411568458E-04   0.3756799214E-03   0.2513837678E-15  -0.2634775125E+00   0.2262374427E+01   0.6253070179E+00   0.9737831632E-01  -0.6544124551E-12  -0.1136225993E-10   0.0000000000E+00
  -0.2748791131E+00   0.1063559083E+00   0.0000000000E+00   0.6329195962E-05   0.3101145866E-04   0.0000000000E+00   0.5516766405E-04   0.3367968314E-03   0.0000000000E+00  -0.5428385798E+00   0.1356472478E+01   0.2504894120E+00   0.3497670266E+00  -0.8962643257E-12  -0.1179281957E-10   0.0000000000E+00
  -0.2748791131E+00   0.1063559083E+00   0.1999999960E-01   0.6329195962E-05   0.3101145866E-04   0.2195723553E-16   0.5516766405E-04   0.3367968314E-03   0.3610655560E-15  -0.5428385798E+00   0.1356472478E+01   0.2504894120E+00   0.3497670266E+00  -0.1260115163E-11  -0.1174536321E-10   0.0000000000E+00
  -0.2749131103E+00   0.8760404565E-01   0.0000000000E+00   0.6065629181E-05   0.3353664225E-04   0.0000000000E+00   0.4134204228E-04   0.3150311079E-03   0.0000000000E+00  -0.6164370466E+00   0.5368046356E+00  -0.2401205293E-01   0.4501022035E+00  -0.2003993474E-11  -0.7941939792E-11   0.0000000000E+00
  -0.2749131103E+00   0.8760404565E-01   0.1999999960E-01   0.6065629181E-05   0.3353664225E-04  -0.1047944928E-16   0.4134204228E-04   0.3150311079E-03   0.3728652693E-15  -0.6164370466E+00   0.5368046356E+00  -0.2401205293E-01   0.4501022035E+00  -0.1892894915E-11  -0.8688557990E-11   0.0000000000E+00
  -0.2749431497E+00   0.6893660011E-01   0.0000000000E+00   0.6335057000E-05   0.3396671565E-04   0.0000000000E+00   0.3117928368E-04   0.3068439910E-03   0.0000000000E+00  -0.5636228057E+00   0.1042236043E+00  -0.1419475847E+00   0.3102721695E+00  -0.3489371336E-11  -0.2938686874E-11   0.0000000000E+00
  -0.2749431497E+00   0.6893660011E-01   0.1999999960E-01   0.6335057000E-05   0.3396671565E-04  -0.3783683154E-16   0.3117928368E-04   0.3068439910E-03   0.1028882754E-15  -0.5636228057E+00   0.1042236043E+00  -0.1419475847E+00   0.3102721695E+00  -0.2997355698E-11  -0.2480894173E-11   0.0000000000E+00
  -0.2749503988E+00   0.5033671776E-01   0.0000000000E+00   0.7733453027E-05   0.3354191790E-04   0.0000000000E+00   0.3579371012E-04   0.3031751396E-03   0.0000000000E+00  -0.5206558270E+00   0.5487325036E-02  -0.1599015670E+00   0.1683402223E+00  -0.4553255903E-11   0.3183662727E-12   0.0000000000E+00
  -0.2749503988E+00   0.5033671776E-01   0.1999999960E-01   0.7733453027E-05   0.3354191790E-04   0.6979770863E-16   0.3579371012E-04   0.3031751396E-03  -0.7622196417E-15  -0.5206558270E+00   0.5487325033E-02  -0.1599015670E+00   0.1683402223E+00  -0.3842175190E-11   0.1911721589E-11   0.0000000000E+00
  -0.2937444750E+00   0.2006000030E+00   0.0000000000E+00   0.0000000000E+00   0.2000000000E-04   0.0000000000E+00   0.0000000000E+00   0.5800000000E-03   0.0000000000E+00   0.1118195411E+01   0.2973626168E+01   0.1218174066E+01  -0.7683915723E+00  -0.2662461582E-12   0.2134331402E-12   0.0000000000E+00
  -0.2936932056E+00   0.1817863487E+00   0.0000000000E+00   0.9035560443E-06   0.2076686744E-04   0.0000000000E+00   0.3659682162E-04   0.5367358513E-03   0.0000000000E+00   0.8944902777E+00   0.3024586017E+01   0.1199089033E+01  -0.7202518582E+00  -0.3655964983E-12   0.1029429356E-12   0.0000000000E+00
  -0.2937444750E+00   0.2006000030E+00   0.1999999960E-01   0.0000000000E+00   0.2000000000E-04  -0.3077428231E-16   0.0000000000E+00   0.5800000000E-03   0.5082232819E-16   0.1118195411E+01   0.2973626168E+01   0.1218174066E+01  -0.7683915723E+00  -0.1022988329E-12  -0.9632737462E-12   0.0000000000E+00
  -0.2936932056E+00   0.1817863487E+00   0.1999999960E-01   0.9035560443E-06   0.2076686744E-04  -0.2139690782E-16   0.3659682162E-04   0.5367358513E-03   0.9084890264E-16   0.8944902777E+00   0.3024586017E+01   0.1199089033E+01  -0.7202518582E+00   0.3180433481E-14  -0.1974517313E-11   0.0000000000E+00
  -0.2936530042E+00   0.1629636419E+00   0.0000000000E+00   0.2163320835E-05   0.2195129424E-04   0.0000000000E+00   0.6719351044E-04   0.4860425985E-03   0.0000000000E+00   0.4713114443E+00   0.3019054268E+01   0.1103572184E+01  -0.5746590221E+00   0.7580249814E-12  -0.3986729248E-11   0.0000000000E+00
  -0.2936530042E+00   0.1629636419E+00   0.1999999960E-01   0.2163320835E-05   0.2195129424E-04  -0.2982296221E-17   0.6719351044E-04   0.4860425985E-03   0.1213277665E-15   0.4713114443E+00   0.3019054268E+01   0.1103572184E+01  -0.5746590221E+00   0.5999873796E-12  -0.4658592828E-11   0.0000000000E+00
  -0.2936273724E+00   0.1441355094E+00   0.0000000000E+00   0.4231140951E-05   0.2443837951E-04   0.0000000000E+00   0.8724147435E-04   0.4302900314E-03   0.0000000000E+00  -0.1590955314E-01   0.2789590395E+01   0.9002592674E+00  -0.2962958614E+00   0.1634742347E-11  -0.8874972300E-11   0.0000000000E+00