 VARIABLES = X,Y,Z,DU1,DU2,DU3,U1,U2,U3,S11,S22,S33,S12,S13,S23,SMISES
 ZONE, T="0.1000D-01" F=FEPOINT, I=   12 J=    2 ET=BRICK
   0.0000000000E+00   0.0000000000E+00   0.0000000000E+00   0.0000000000E+00   0.0000000000E+00   0.0000000000E+00   0.0000000000E+00   0.0000000000E+00   0.0000000000E+00   0.3542831634E+00  -0.1564859444E-06  -0.1564859444E-06   0.1887027772E-17   0.6596336833E-16   0.4743387596E-18   0.3542833199E+00
   0.1001000000E+01   0.0000000000E+00   0.5603551931E-18   0.1000000000E-02   0.0000000000E+00   0.5603551931E-18   0.0000000000E+00   0.0000000000E+00   0.0000000000E+00   0.3542831634E+00  -0.1564859441E-06  -0.1564859442E-06  -0.1014364907E-16   0.9408516044E-17   0.1859686489E-16   0.3542833199E+00
   0.1001000000E+01   0.9995590471E+00   0.6900271522E-18   0.1000000000E-02  -0.4409528583E-03   0.6900271522E-18   0.0000000000E+00   0.0000000000E+00   0.0000000000E+00   0.3542831634E+00  -0.1564859441E-06  -0.1564859441E-06  -0.1117663659E-15   0.7660509102E-16  -0.1552149230E-16   0.3542833199E+00
   0.0000000000E+00   0.9995590471E+00   0.5090283223E-19   0.0000000000E+00  -0.4409528583E-03   0.5090283223E-19   0.0000000000E+00   0.0000000000E+00   0.0000000000E+00   0.3542831634E+00  -0.1564859442E-06  -0.1564859442E-06  -0.7428038867E-16   0.7958974550E-16  -0.9853987058E-18   0.3542833199E+00
   0.0000000000E+00   0.0000000000E+00   0.9995590471E+00   0.0000000000E+00   0.0000000000E+00  -0.4409528583E-03   0.0000000000E+00   0.0000000000E+00   0.0000000000E+00   0.3542831634E+00  -0.1564859438E-06  -0.1564859438E-06  -0.1190212012E-17  -0.2342759401E-16   0.2752935956E-16   0.3542833199E+00
   0.1001000000E+01   0.0000000000E+00   0.9995590471E+00   0.1000000000E-02   0.0000000000E+00  -0.4409528583E-03   0.0000000000E+00   0.0000000000E+00   0.0000000000E+00   0.3542831634E+00  -0.1564859443E-06  -0.1564859443E-06   0.2822820625E-16  -0.5730729403E-16   0.1980547346E-16   0.3542833199E+00
   0.1001000000E+01   0.9995590471E+00   0.9995590471E+00   0.1000000000E-02  -0.4409528583E-03  -0.4409528583E-03   0.0000000000E+00   0.0000000000E+00   0.0000000000E+00   0.3542831633E+00  -0.1564859441E-06  -0.1564859441E-06  -0.2974315548E-16  -0.1045810234E-15  -0.5514540158E-18   0.3542833198E+00
   0.0000000000E+00   0.9995590471E+00   0.9995590471E+00   0.0000000000E+00  -0.4409528583E-03  -0.4409528583E-03   0.0000000000E+00   0.0000000000E+00   0.0000000000E+00   0.3542831634E+00  -0.1564859440E-06  -0.1564859439E-06  -0.1081434990E-15  -0.1597172253E-16   0.1723689386E-16   0.3542833198E+00
   0.2002000000E+01   0.0000000000E+00   0.1312656295E-17   0.2000000000E-02   0.0000000000E+00   0.1312656295E-17   0.0000000000E+00   0.0000000000E+00   0.0000000000E+00   0.3542831634E+00  -0.1564859438E-06  -0.1564859438E-06  -0.2751104556E-16   0.1647179707E-15  -0.2123645832E-16   0.3542833199E+00
   0.2002000000E+01   0.9995590471E+00   0.1163318229E-17   0.2000000000E-02  -0.4409528583E-03   0.1163318229E-17   0.0000000000E+00   0.0000000000E+00   0.0000000000E+00   0.3542831634E+00  -0.1564859433E-06  -0.1564859433E-06  -0.1203194733E-15   0.1933778957E-16   0.7372026007E-18   0.3542833199E+00
   0.2002000000E+01   0.0000000000E+00   0.9995590471E+00   0.2000000000E-02   0.0000000000E+00  -0.4409528583E-03   0.0000000000E+00   0.0000000000E+00   0.0000000000E+00   0.3542831634E+00  -0.1564859439E-06  -0.1564859439E-06   0.3159944848E-16   0.2946686868E-16  -0.2002254896E-16   0.3542833199E+00
   0.2002000000E+01   0.9995590471E+00   0.9995590471E+00   0.2000000000E-02  -0.4409528583E-03  -0.4409528583E-03   0.0000000000E+00   0.0000000000E+00   0.0000000000E+00   0.3542831633E+00  -0.1564859448E-06  -0.1564859448E-06  -0.8163418143E-16  -0.9628429514E-16   0.1449964320E-16   0.3542833198E+00
     1     2     3     4     5     6     7     8
     2     9    10     3     6    11    12     7
 VARIABLES = X,Y,Z,DU1,DU2,DU3,U1,U2,U3,S11,S22,S33,S12,S13,S23,SMISES
 ZONE, T="0.2000D-01" F=FEPOINT, I=   12 J=    2 ET=BRICK
   0.0000000000E+00   0.0000000000E+00   0.0000000000E+00   0.0000000000E+00   0.0000000000E+00   0.0000000000E+00   0.0000000000E+00   0.0000000000E+00   0.0000000000E+00   0.5261510200E+00   0.8543064991E-08   0.8543065018E-08   0.1062313056E-17  -0.3147914342E-17  -0.3618494916E-16   0.5261510114E+00
   0.1002000000E+01   0.0000000000E+00  -0.1797335764E-21   0.1000000000E-02   0.0000000000E+00  -0.5605349267E-18   0.1000000000E-02   0.0000000000E+00   0.5603551931E-18   0.5261510199E+00   0.8543065021E-08   0.8543064959E-08  -0.6747338852E-17  -0.1704752717E-16  -0.1078930485E-16   0.5261510114E+00
   0.1002000000E+01   0.9990876918E+00  -0.1543910444E-18   0.1000000000E-02  -0.4713553023E-03  -0.8444181967E-18   0.1000000000E-02  -0.4409528583E-03   0.6900271522E-18   0.5261510199E+00   0.8543064773E-08   0.8543064837E-08  -0.1844415069E-17   0.3020100547E-16   0.3139949508E-17   0.5261510113E+00
   0.0000000000E+00   0.9990876918E+00  -0.2754432343E-18   0.0000000000E+00  -0.4713553023E-03  -0.3263460665E-18   0.0000000000E+00  -0.4409528583E-03   0.5090283223E-19   0.5261510199E+00   0.8543065029E-08   0.8543065033E-08  -0.2338896412E-16   0.2960407256E-16   0.1059414690E-16   0.5261510113E+00
   0.0000000000E+00   0.0000000000E+00   0.9990876918E+00   0.0000000000E+00   0.0000000000E+00  -0.4713553023E-03   0.0000000000E+00   0.0000000000E+00  -0.4409528583E-03   0.5261510199E+00   0.8543065516E-08   0.8543065479E-08  -0.1828189696E-17  -0.7419870333E-17   0.1849864541E-16   0.5261510113E+00
   0.1002000000E+01   0.0000000000E+00   0.9990876918E+00   0.1000000000E-02   0.0000000000E+00  -0.4713553023E-03   0.1000000000E-02   0.0000000000E+00  -0.4409528583E-03   0.5261510199E+00   0.8543064631E-08   0.8543064575E-08   0.6927357777E-16   0.1027429195E-17  -0.1727173338E-16   0.5261510113E+00
   0.1002000000E+01   0.9990876918E+00   0.9990876918E+00   0.1000000000E-02  -0.4713553023E-03  -0.4713553023E-03   0.1000000000E-02  -0.4409528583E-03  -0.4409528583E-03   0.5261510198E+00   0.8543065048E-08   0.8543064980E-08   0.4865236498E-16  -0.1076383774E-16   0.8966038702E-17   0.5261510113E+00
   0.0000000000E+00   0.9990876918E+00   0.9990876918E+00   0.0000000000E+00  -0.4713553023E-03  -0.4713553023E-03   0.0000000000E+00  -0.4409528583E-03  -0.4409528583E-03   0.5261510198E+00   0.8543064664E-08   0.8543064723E-08  -0.3014615058E-16  -0.2114684025E-16   0.1307651912E-16   0.5261510113E+00
   0.2004000000E+01   0.0000000000E+00  -0.1615241393E-18   0.2000000000E-02   0.0000000000E+00  -0.1474180435E-17   0.2000000000E-02   0.0000000000E+00   0.1312656295E-17   0.5261510199E+00   0.8543063895E-08   0.8543063868E-08  -0.3192143304E-16   0.7153350493E-16  -0.8220821839E-17   0.5261510114E+00
   0.2004000000E+01   0.9990876918E+00  -0.2200273016E-18   0.2000000000E-02  -0.4713553023E-03  -0.1383345531E-17   0.2000000000E-02  -0.4409528583E-03   0.1163318229E-17   0.5261510199E+00   0.8543065993E-08   0.8543066081E-08  -0.1337000746E-17  -0.8586103074E-16  -0.1629697042E-16   0.5261510113E+00
   0.2004000000E+01   0.0000000000E+00   0.9990876918E+00   0.2000000000E-02   0.0000000000E+00  -0.4713553023E-03   0.2000000000E-02   0.0000000000E+00  -0.4409528583E-03   0.5261510199E+00   0.8543065430E-08   0.8543065495E-08  -0.1860640445E-17  -0.1169423663E-16   0.4754528585E-17   0.5261510113E+00
   0.2004000000E+01   0.9990876918E+00   0.9990876918E+00   0.2000000000E-02  -0.4713553023E-03  -0.4713553023E-03   0.2000000000E-02  -0.4409528583E-03  -0.4409528583E-03   0.5261510198E+00   0.8543064004E-08   0.8543063990E-08  -0.1845779757E-16   0.8373634742E-16   0.1783535509E-16   0.5261510113E+00
     1     2     3     4     5     6     7     8
     2     9    10     3     6    11    12     7
 VARIABLES = X,Y,Z,DU1,DU2,DU3,U1,U2,U3,S11,S22,S33,S12,S13,S23,SMISES
 ZONE, T="0.3000D-01" F=FEPOINT, I=   12 J=    2 ET=BRICK
   0.0000000000E+00   0.0000000000E+00   0.0000000000E+00   0.0000000000E+00   0.0000000000E+00   0.0000000000E+00   0.0000000000E+00   0.0000000000E+00   0.0000000000E+00   0.6486706498E+00   0.8441093024E-08   0.8441093054E-08  -0.4083951337E-17  -0.1806964350E-17  -0.8735791588E-17   0.6486706413E+00
   0.1003000000E+01   0.0000000000E+00   0.1484664617E-18   0.1000000000E-02   0.0000000000E+00   0.1486461953E-18   0.2000000000E-02   0.0000000000E+00  -0.1797335764E-21   0.6486706497E+00   0.8441092704E-08   0.8441092681E-08   0.6418360736E-16   0.2164733992E-16  -0.1686295635E-18   0.6486706413E+00
   0.1003000000E+01   0.9986081118E+00   0.7716964351E-19   0.1000000000E-02  -0.4795800618E-03   0.2315606879E-18   0.2000000000E-02  -0.9123081606E-03  -0.1543910444E-18   0.6486706497E+00   0.8441093305E-08   0.8441093351E-08   0.5857364660E-16  -0.9148899508E-16  -0.6575908771E-17   0.6486706412E+00
   0.0000000000E+00   0.9986081118E+00  -0.9743880841E-20   0.0000000000E+00  -0.4795800618E-03   0.2656993535E-18   0.0000000000E+00  -0.9123081606E-03  -0.2754432343E-18   0.6486706497E+00   0.8441093654E-08   0.8441093560E-08  -0.1984258777E-16   0.3404076019E-16  -0.2983226685E-16   0.6486706412E+00
   0.0000000000E+00   0.0000000000E+00   0.9986081118E+00   0.0000000000E+00   0.0000000000E+00  -0.4795800618E-03   0.0000000000E+00   0.0000000000E+00  -0.9123081606E-03   0.6486706497E+00   0.8441093255E-08   0.8441093246E-08  -0.4002741504E-17   0.5443968715E-16   0.2258752743E-16   0.6486706412E+00
   0.1003000000E+01   0.0000000000E+00   0.9986081118E+00   0.1000000000E-02   0.0000000000E+00  -0.4795800618E-03   0.2000000000E-02   0.0000000000E+00  -0.9123081606E-03   0.6486706497E+00   0.8441093213E-08   0.8441093222E-08   0.1941655766E-16   0.2769299466E-16  -0.7527883830E-17   0.6486706412E+00
   0.1003000000E+01   0.9986081118E+00   0.9986081118E+00   0.1000000000E-02  -0.4795800618E-03  -0.4795800618E-03   0.2000000000E-02  -0.9123081606E-03  -0.9123081606E-03   0.6486706496E+00   0.8441093453E-08   0.8441093430E-08   0.6527674279E-17  -0.2994605844E-16   0.1378416026E-16   0.6486706411E+00
   0.0000000000E+00   0.9986081118E+00   0.9986081118E+00   0.0000000000E+00  -0.4795800618E-03  -0.4795800618E-03   0.0000000000E+00  -0.9123081606E-03  -0.9123081606E-03   0.6486706496E+00   0.8441092884E-08   0.8441092915E-08   0.3941795799E-16  -0.1173121527E-16  -0.1833417666E-16   0.6486706412E+00
   0.2006000000E+01   0.0000000000E+00   0.1408729526E-18   0.2000000000E-02   0.0000000000E+00   0.3023970919E-18   0.4000000000E-02   0.0000000000E+00  -0.1615241393E-18   0.6486706497E+00   0.8441092837E-08   0.8441092900E-08  -0.6634962109E-17   0.3676197371E-16   0.1169421079E-16   0.6486706413E+00
   0.2006000000E+01   0.9986081118E+00   0.2069793039E-18   0.2000000000E-02  -0.4795800618E-03   0.4270066056E-18   0.4000000000E-02  -0.9123081606E-03  -0.2200273016E-18   0.6486706496E+00   0.8441093336E-08   0.8441093365E-08  -0.2583241912E-16  -0.1190272971E-17   0.2136959654E-16   0.6486706412E+00
   0.2006000000E+01   0.0000000000E+00   0.9986081118E+00   0.2000000000E-02   0.0000000000E+00  -0.4795800618E-03   0.4000000000E-02   0.0000000000E+00  -0.9123081606E-03   0.6486706496E+00   0.8441092902E-08   0.8441092866E-08  -0.1189608787E-16  -0.7446867804E-16  -0.1794049894E-16   0.6486706412E+00
   0.2006000000E+01   0.9986081118E+00   0.9986081118E+00   0.2000000000E-02  -0.4795800618E-03  -0.4795800618E-03   0.4000000000E-02  -0.9123081606E-03  -0.9123081606E-03   0.6486706496E+00   0.8441094474E-08   0.8441094537E-08  -0.1382198903E-16   0.4858727341E-16   0.4619676520E-16   0.6486706411E+00
     1     2     3     4     5     6     7     8
     2     9    10     3     6    11    12     7
 VARIABLES = X,Y,Z,DU1,DU2,DU3,U1,U2,U3,S11,S22,S33,S12,S13,S23,SMISES
 ZONE, T="0.4000D-01" F=FEPOINT, I=   12 J=    2 ET=BRICK
   0.0000000000E+00   0.0000000000E+00   0.0000000000E+00   0.0000000000E+00   0.0000000000E+00   0.0000000000E+00   0.0000000000E+00   0.0000000000E+00   0.0000000000E+00   0.7429532549E+00   0.7675811077E-08   0.7675811194E-08  -0.2042448584E-17   0.6617773693E-16   0.1856830389E-16   0.7429532472E+00
   0.1004000000E+01   0.0000000000E+00   0.9029137209E-18   0.1000000000E-02   0.0000000000E+00   0.7544472592E-18   0.3000000000E-02   0.0000000000E+00   0.1484664617E-18   0.7429532549E+00   0.7675812307E-08   0.7675812169E-08   0.8088426725E-16   0.1456329384E-16  -0.8355556630E-17   0.7429532472E+00
   0.1004000000E+01   0.9981238255E+00   0.5454523838E-18   0.1000000000E-02  -0.4842862328E-03   0.4682827403E-18   0.3000000000E-02  -0.1391888222E-02   0.7716964351E-19   0.7429532548E+00   0.7675812502E-08   0.7675812694E-08   0.2970332952E-16  -0.1322135913E-16  -0.8857457797E-17   0.7429532471E+00
   0.0000000000E+00   0.9981238255E+00   0.2544300282E-18   0.0000000000E+00  -0.4842862328E-03   0.2641739091E-18   0.0000000000E+00  -0.1391888222E-02  -0.9743880841E-20   0.7429532548E+00   0.7675811000E-08   0.7675810839E-08  -0.6222232652E-16  -0.5422162360E-16  -0.4444968271E-16   0.7429532471E+00
   0.0000000000E+00   0.0000000000E+00   0.9981238255E+00   0.0000000000E+00   0.0000000000E+00  -0.4842862328E-03   0.0000000000E+00   0.0000000000E+00  -0.1391888222E-02   0.7429532548E+00   0.7675812559E-08   0.7675812433E-08  -0.5890229315E-17   0.1690117290E-16  -0.6743694943E-17   0.7429532471E+00
   0.1004000000E+01   0.0000000000E+00   0.9981238255E+00   0.1000000000E-02   0.0000000000E+00  -0.4842862328E-03   0.3000000000E-02   0.0000000000E+00  -0.1391888222E-02   0.7429532548E+00   0.7675812585E-08   0.7675812647E-08   0.2425221815E-16  -0.1789672468E-16   0.5638371442E-17   0.7429532471E+00
   0.1004000000E+01   0.9981238255E+00   0.9981238255E+00   0.1000000000E-02  -0.4842862328E-03  -0.4842862328E-03   0.3000000000E-02  -0.1391888222E-02  -0.1391888222E-02   0.7429532547E+00   0.7675810640E-08   0.7675810554E-08  -0.3854019635E-16  -0.7227335595E-16   0.2856091031E-16   0.7429532470E+00
   0.0000000000E+00   0.9981238255E+00   0.9981238255E+00   0.0000000000E+00  -0.4842862328E-03  -0.4842862328E-03   0.0000000000E+00  -0.1391888222E-02  -0.1391888222E-02   0.7429532547E+00   0.7675812206E-08   0.7675812185E-08   0.2175235290E-16   0.5300081365E-16  -0.1309511360E-16   0.7429532470E+00
   0.2008000000E+01   0.0000000000E+00   0.1562325811E-17   0.2000000000E-02   0.0000000000E+00   0.1421452858E-17   0.6000000000E-02   0.0000000000E+00   0.1408729526E-18   0.7429532548E+00   0.7675812019E-08   0.7675812157E-08  -0.1827706417E-16   0.6246287136E-17  -0.1036176657E-16   0.7429532472E+00
   0.2008000000E+01   0.9981238255E+00   0.1646948215E-17   0.2000000000E-02  -0.4842862328E-03   0.1439968911E-17   0.6000000000E-02  -0.1391888222E-02   0.2069793039E-18   0.7429532548E+00   0.7675810920E-08   0.7675810874E-08   0.5737683185E-17  -0.6427890340E-17   0.4131285121E-16   0.7429532471E+00
   0.2008000000E+01   0.0000000000E+00   0.9981238255E+00   0.2000000000E-02   0.0000000000E+00  -0.4842862328E-03   0.6000000000E-02   0.0000000000E+00  -0.1391888222E-02   0.7429532548E+00   0.7675810664E-08   0.7675810652E-08   0.1818164835E-16   0.4161194513E-16  -0.1431136562E-16   0.7429532471E+00
   0.2008000000E+01   0.9981238255E+00   0.9981238255E+00   0.2000000000E-02  -0.4842862328E-03  -0.4842862328E-03   0.6000000000E-02  -0.1391888222E-02  -0.1391888222E-02   0.7429532547E+00   0.7675812495E-08   0.7675812383E-08  -0.3546026937E-16   0.2181321822E-16  -0.1474685064E-16   0.7429532470E+00
     1     2     3     4     5     6     7     8
     2     9    10     3     6    11    12     7
 VARIABLES = X,Y,Z,DU1,DU2,DU3,U1,U2,U3,S11,S22,S33,S12,S13,S23,SMISES
 ZONE, T="0.5000D-01" F=FEPOINT, I=   12 J=    2 ET=BRICK
   0.0000000000E+00   0.0000000000E+00   0.0000000000E+00   0.0000000000E+00   0.0000000000E+00   0.0000000000E+00   0.0000000000E+00   0.0000000000E+00   0.0000000000E+00   0.8174753337E+00   0.6451431741E-08   0.6451431703E-08  -0.1084628167E-16  -0.1952147247E-16  -0.2188449052E-16   0.8174753272E+00
   0.1005000000E+01   0.0000000000E+00  -0.5672373407E-19   0.1000000000E-02   0.0000000000E+00  -0.9596374550E-18   0.4000000000E-02   0.0000000000E+00   0.9029137209E-18   0.8174753337E+00   0.6451432839E-08   0.6451432672E-08   0.1865158450E-16  -0.9185527001E-16   0.3603192707E-18   0.8174753272E+00
   0.1005000000E+01   0.9976362459E+00   0.1097984092E-18   0.1000000000E-02  -0.4875796540E-03  -0.4356539746E-18   0.4000000000E-02  -0.1876174455E-02   0.5454523838E-18   0.8174753336E+00   0.6451434135E-08   0.6451434263E-08  -0.1758138035E-16  -0.6828149330E-17   0.2676782021E-16   0.8174753271E+00
   0.0000000000E+00   0.9976362459E+00  -0.5728539288E-18   0.0000000000E+00  -0.4875796540E-03  -0.8272839570E-18   0.0000000000E+00  -0.1876174455E-02   0.2544300282E-18   0.8174753336E+00   0.6451430287E-08   0.6451430308E-08   0.3117148823E-16   0.5119431964E-16  -0.6748451027E-17   0.8174753272E+00
   0.0000000000E+00   0.0000000000E+00   0.9976362459E+00   0.0000000000E+00   0.0000000000E+00  -0.4875796540E-03   0.0000000000E+00   0.0000000000E+00  -0.1876174455E-02   0.8174753336E+00   0.6451431955E-08   0.6451431865E-08  -0.7048653676E-17  -0.4489480341E-17   0.1787402938E-16   0.8174753272E+00
   0.1005000000E+01   0.0000000000E+00   0.9976362459E+00   0.1000000000E-02   0.0000000000E+00  -0.4875796540E-03   0.4000000000E-02   0.0000000000E+00  -0.1876174455E-02   0.8174753336E+00   0.6451432350E-08   0.6451432451E-08   0.5456670630E-16  -0.2600150342E-16   0.4140381298E-17   0.8174753271E+00
   0.1005000000E+01   0.9976362459E+00   0.9976362459E+00   0.1000000000E-02  -0.4875796540E-03  -0.4875796540E-03   0.4000000000E-02  -0.1876174455E-02  -0.1876174455E-02   0.8174753335E+00   0.6451432556E-08   0.6451432559E-08   0.3993506849E-16  -0.5724680537E-16  -0.9360025646E-17   0.8174753270E+00
   0.0000000000E+00   0.9976362459E+00   0.9976362459E+00   0.0000000000E+00  -0.4875796540E-03  -0.4875796540E-03   0.0000000000E+00  -0.1876174455E-02  -0.1876174455E-02   0.8174753335E+00   0.6451430417E-08   0.6451430320E-08  -0.1669509391E-16   0.5997843500E-16  -0.1682090626E-16   0.8174753271E+00
   0.2010000000E+01   0.0000000000E+00   0.1288471428E-17   0.2000000000E-02   0.0000000000E+00  -0.2738543824E-18   0.8000000000E-02   0.0000000000E+00   0.1562325811E-17   0.8174753337E+00   0.6451431098E-08   0.6451431226E-08   0.4697043561E-17  -0.5010322635E-16  -0.3931934286E-16   0.8174753272E+00
   0.2010000000E+01   0.9976362459E+00   0.7273492127E-18   0.2000000000E-02  -0.4875796540E-03  -0.9195990020E-18   0.8000000000E-02  -0.1876174455E-02   0.1646948215E-17   0.8174753336E+00   0.6451431597E-08   0.6451431613E-08  -0.2953108306E-16   0.1179776800E-15   0.4323021875E-16   0.8174753271E+00
   0.2010000000E+01   0.0000000000E+00   0.9976362459E+00   0.2000000000E-02   0.0000000000E+00  -0.4875796540E-03   0.8000000000E-02   0.0000000000E+00  -0.1876174455E-02   0.8174753336E+00   0.6451432896E-08   0.6451432826E-08  -0.3658325401E-16   0.2698992261E-16  -0.2018839702E-17   0.8174753271E+00
   0.2010000000E+01   0.9976362459E+00   0.9976362459E+00   0.2000000000E-02  -0.4875796540E-03  -0.4875796540E-03   0.8000000000E-02  -0.1876174455E-02  -0.1876174455E-02   0.8174753335E+00   0.6451430665E-08   0.6451430760E-08  -0.3306368491E-17   0.3326965465E-16  -0.5499269102E-16   0.8174753270E+00
     1     2     3     4     5     6     7     8
     2     9    10     3     6    11    12     7
 VARIABLES = X,Y,Z,DU1,DU2,DU3,U1,U2,U3,S11,S22,S33,S12,S13,S23,SMISES
 ZONE, T="0.6000D-01" F=FEPOINT, I=   12 J=    2 ET=BRICK
   0.0000000000E+00   0.0000000000E+00   0.0000000000E+00   0.0000000000E+00   0.0000000000E+00   0.0000000000E+00   0.0000000000E+00   0.0000000000E+00   0.0000000000E+00   0.8766274149E+00   0.5182001838E-08   0.5182001775E-08  -0.7866828111E-18   0.7649162852E-16   0.6490007167E-16   0.8766274098E+00
   0.1006000000E+01   0.0000000000E+00   0.1898418412E-17   0.1000000000E-02   0.0000000000E+00   0.1955142146E-17   0.5000000000E-02   0.0000000000E+00  -0.5672373407E-19   0.8766274149E+00   0.5182001517E-08   0.5182001509E-08  -0.4237665478E-16  -0.1817718222E-17  -0.2651500144E-16   0.8766274097E+00
   0.1006000000E+01   0.9971461046E+00   0.1678562352E-17   0.1000000000E-02  -0.4901413202E-03   0.1568763942E-17   0.5000000000E-02  -0.2363754109E-02   0.1097984092E-18   0.8766274148E+00   0.5182003643E-08   0.5182003578E-08  -0.6791347901E-16  -0.5136554364E-16   0.3970090194E-17   0.8766274096E+00
   0.0000000000E+00   0.9971461046E+00   0.1502729891E-17   0.0000000000E+00  -0.4901413202E-03   0.2075583819E-17   0.0000000000E+00  -0.2363754109E-02  -0.5728539288E-18   0.8766274148E+00   0.5182000011E-08   0.5182000080E-08  -0.4712986242E-16   0.1127154328E-16   0.1013242798E-17   0.8766274097E+00
   0.0000000000E+00   0.0000000000E+00   0.9971461046E+00   0.0000000000E+00   0.0000000000E+00  -0.4901413202E-03   0.0000000000E+00   0.0000000000E+00  -0.2363754109E-02   0.8766274148E+00   0.5182001301E-08   0.5182001563E-08  -0.6476840778E-17   0.1838082619E-16   0.9538758322E-17   0.8766274097E+00
   0.1006000000E+01   0.0000000000E+00   0.9971461046E+00   0.1000000000E-02   0.0000000000E+00  -0.4901413202E-03   0.5000000000E-02   0.0000000000E+00  -0.2363754109E-02   0.8766274148E+00   0.5182005441E-08   0.5182005247E-08   0.1723704010E-16  -0.3848409346E-16   0.6057319912E-16   0.8766274096E+00
   0.1006000000E+01   0.9971461046E+00   0.9971461046E+00   0.1000000000E-02  -0.4901413202E-03  -0.4901413202E-03   0.5000000000E-02  -0.2363754109E-02  -0.2363754109E-02   0.8766274147E+00   0.5182001264E-08   0.5182001394E-08   0.5722494370E-16  -0.1108618597E-16  -0.2463365288E-16   0.8766274095E+00
   0.0000000000E+00   0.9971461046E+00   0.9971461046E+00   0.0000000000E+00  -0.4901413202E-03  -0.4901413202E-03   0.0000000000E+00  -0.2363754109E-02  -0.2363754109E-02   0.8766274147E+00   0.5182007347E-08   0.5182007174E-08   0.1006122894E-17   0.4398216772E-16  -0.5388868348E-16   0.8766274096E+00
   0.2012000000E+01   0.0000000000E+00   0.2862949326E-17   0.2000000000E-02   0.0000000000E+00   0.1574477898E-17   0.1000000000E-01   0.0000000000E+00   0.1288471428E-17   0.8766274149E+00   0.5182004703E-08   0.5182004506E-08   0.1868137374E-16   0.9857291376E-16  -0.2494022603E-16   0.8766274097E+00
   0.2012000000E+01   0.9971461046E+00   0.2180679705E-17   0.2000000000E-02  -0.4901413202E-03   0.1453330492E-17   0.1000000000E-01  -0.2363754109E-02   0.7273492127E-18   0.8766274148E+00   0.5182000905E-08   0.5182000968E-08   0.4044399371E-18  -0.1079948724E-15  -0.1724293315E-16   0.8766274096E+00
   0.2012000000E+01   0.0000000000E+00   0.9971461046E+00   0.2000000000E-02   0.0000000000E+00  -0.4901413202E-03   0.1000000000E-01   0.0000000000E+00  -0.2363754109E-02   0.8766274148E+00   0.5182000462E-08   0.5182000590E-08  -0.2694287570E-16  -0.7927745159E-16  -0.1293723531E-17   0.8766274096E+00
   0.2012000000E+01   0.9971461046E+00   0.9971461046E+00   0.2000000000E-02  -0.4901413202E-03  -0.4901413202E-03   0.1000000000E-01  -0.2363754109E-02  -0.2363754109E-02   0.8766274147E+00   0.5182003926E-08   0.5182003859E-08   0.3242324173E-17   0.1467623704E-15   0.4561261576E-16   0.8766274095E+00
     1     2     3     4     5     6     7     8
     2     9    10     3     6    11    12     7
 VARIABLES = X,Y,Z,DU1,DU2,DU3,U1,U2,U3,S11,S22,S33,S12,S13,S23,SMISES
 ZONE, T="0.7000D-01" F=FEPOINT, I=   12 J=    2 ET=BRICK
   0.0000000000E+00   0.0000000000E+00   0.0000000000E+00   0.0000000000E+00   0.0000000000E+00   0.0000000000E+00   0.0000000000E+00   0.0000000000E+00   0.0000000000E+00   0.9229897770E+00   0.4077576545E-06   0.4077576545E-06   0.9084382618E-17  -0.7836460612E-16  -0.1584258094E-16   0.9229893693E+00
   0.1007000000E+01   0.0000000000E+00  -0.1117626186E-17   0.1000000000E-02   0.0000000000E+00  -0.3016044598E-17   0.6000000000E-02   0.0000000000E+00   0.1898418412E-17   0.9229897770E+00   0.4077576505E-06   0.4077576505E-06   0.3743070110E-16   0.5332764277E-16   0.4570577891E-16   0.9229893693E+00
   0.1007000000E+01   0.9966538318E+00  -0.2408773752E-18   0.1000000000E-02  -0.4922728055E-03  -0.1919439727E-17   0.6000000000E-02  -0.2853895429E-02   0.1678562352E-17   0.9229897769E+00   0.4077576515E-06   0.4077576514E-06   0.6443970430E-16  -0.8609817197E-17   0.1570122010E-16   0.9229893692E+00
   0.0000000000E+00   0.9966538318E+00  -0.3053640940E-18   0.0000000000E+00  -0.4922728055E-03  -0.1808093985E-17   0.0000000000E+00  -0.2853895429E-02   0.1502729891E-17   0.9229897769E+00   0.4077576476E-06   0.4077576477E-06   0.1655325980E-16  -0.5816088059E-17  -0.6153421500E-16   0.9229893692E+00
   0.0000000000E+00   0.0000000000E+00   0.9966538318E+00   0.0000000000E+00   0.0000000000E+00  -0.4922728055E-03   0.0000000000E+00   0.0000000000E+00  -0.2853895429E-02   0.9229897769E+00   0.4077576493E-06   0.4077576492E-06  -0.1371642877E-18  -0.2009205238E-16  -0.3334263557E-16   0.9229893692E+00
   0.1007000000E+01   0.0000000000E+00   0.9966538318E+00   0.1000000000E-02   0.0000000000E+00  -0.4922728055E-03   0.6000000000E-02   0.0000000000E+00  -0.2853895429E-02   0.9229897769E+00   0.4077576516E-06   0.4077576516E-06  -0.6729814510E-16   0.6843469952E-16   0.1712214064E-16   0.9229893692E+00
   0.1007000000E+01   0.9966538318E+00   0.9966538318E+00   0.1000000000E-02  -0.4922728055E-03  -0.4922728055E-03   0.6000000000E-02  -0.2853895429E-02  -0.2853895429E-02   0.9229897768E+00   0.4077576474E-06   0.4077576475E-06  -0.4444566138E-16   0.1268103352E-16  -0.9403350796E-16   0.9229893691E+00
   0.0000000000E+00   0.9966538318E+00   0.9966538318E+00   0.0000000000E+00  -0.4922728055E-03  -0.4922728055E-03   0.0000000000E+00  -0.2853895429E-02  -0.2853895429E-02   0.9229897768E+00   0.4077576517E-06   0.4077576516E-06  -0.1964353208E-16  -0.3462205549E-16   0.6813562906E-16   0.9229893691E+00
   0.2014000000E+01   0.0000000000E+00  -0.5408713143E-18   0.2000000000E-02   0.0000000000E+00  -0.3403820641E-17   0.1200000000E-01   0.0000000000E+00   0.2862949326E-17   0.9229897770E+00   0.4077576544E-06   0.4077576544E-06   0.2038584653E-16  -0.4789870610E-16  -0.2874796684E-16   0.9229893692E+00
   0.2014000000E+01   0.9966538318E+00  -0.9914850270E-18   0.2000000000E-02  -0.4922728055E-03  -0.3172164732E-17   0.1200000000E-01  -0.2853895429E-02   0.2180679705E-17   0.9229897769E+00   0.4077576515E-06   0.4077576516E-06  -0.5285758551E-16  -0.6672481622E-16   0.6439737930E-16   0.9229893691E+00
   0.2014000000E+01   0.0000000000E+00   0.9966538318E+00   0.2000000000E-02   0.0000000000E+00  -0.4922728055E-03   0.1200000000E-01   0.0000000000E+00  -0.2853895429E-02   0.9229897769E+00   0.4077576488E-06   0.4077576489E-06  -0.2398382550E-16  -0.9240927054E-16  -0.1355627019E-16   0.9229893691E+00
   0.2014000000E+01   0.9966538318E+00   0.9966538318E+00   0.2000000000E-02  -0.4922728055E-03  -0.4922728055E-03   0.1200000000E-01  -0.2853895429E-02  -0.2853895429E-02   0.9229897768E+00   0.4077576510E-06   0.4077576509E-06   0.2273716705E-16  -0.3691850411E-16   0.1777109960E-17   0.9229893690E+00
     1     2     3     4     5     6     7     8
     2     9    10     3     6    11    12     7
 VARIABLES = X,Y,Z,DU1,DU2,DU3,U1,U2,U3,S11,S22,S33,S12,S13,S23,SMISES
 ZONE, T="0.8000D-01" F=FEPOINT, I=   12 J=    2 ET=BRICK
   0.0000000000E+00   0.0000000000E+00   0.0000000000E+00   0.0000000000E+00   0.0000000000E+00   0.0000000000E+00   0.0000000000E+00   0.0000000000E+00   0.0000000000E+00   0.9581813249E+00   0.3126684379E-06   0.3126684380E-06  -0.1079940426E-16  -0.7697173076E-18   0.3729900450E-16   0.9581810122E+00
   0.1008000000E+01   0.0000000000E+00  -0.1618291604E-18   0.1000000000E-02   0.0000000000E+00   0.9557970259E-18   0.7000000000E-02   0.0000000000E+00  -0.1117626186E-17   0.9581813248E+00   0.3126684355E-06   0.3126684355E-06   0.4780919773E-16   0.1276706926E-17  -0.2178812028E-16   0.9581810122E+00
   0.1008000000E+01   0.9961596970E+00  -0.2875283618E-18   0.1000000000E-02  -0.4941347737E-03  -0.4665098656E-19   0.7000000000E-02  -0.3346168235E-02  -0.2408773752E-18   0.9581813247E+00   0.3126684399E-06   0.3126684400E-06   0.8598608551E-17  -0.6458949376E-16   0.1789511390E-16   0.9581810121E+00
   0.0000000000E+00   0.9961596970E+00   0.6182589137E-18   0.0000000000E+00  -0.4941347737E-03   0.9236230078E-18   0.0000000000E+00  -0.3346168235E-02  -0.3053640940E-18   0.9581813248E+00   0.3126684376E-06   0.3126684374E-06   0.5826011823E-18   0.6085498165E-17  -0.1057547043E-16   0.9581810121E+00
   0.0000000000E+00   0.0000000000E+00   0.9961596970E+00   0.0000000000E+00   0.0000000000E+00  -0.4941347737E-03   0.0000000000E+00   0.0000000000E+00  -0.3346168235E-02   0.9581813248E+00   0.3126684327E-06   0.3126684329E-06   0.2085089055E-17  -0.2758698391E-16  -0.6356100766E-16   0.9581810121E+00
   0.1008000000E+01   0.0000000000E+00   0.9961596970E+00   0.1000000000E-02   0.0000000000E+00  -0.4941347737E-03   0.7000000000E-02   0.0000000000E+00  -0.3346168235E-02   0.9581813247E+00   0.3126684383E-06   0.3126684383E-06   0.6150547065E-18   0.6312062536E-16   0.1921022359E-16   0.9581810121E+00
   0.1008000000E+01   0.9961596970E+00   0.9961596970E+00   0.1000000000E-02  -0.4941347737E-03  -0.4941347737E-03   0.7000000000E-02  -0.3346168235E-02  -0.3346168235E-02   0.9581813246E+00   0.3126684313E-06   0.3126684312E-06  -0.2802531820E-17   0.6116962895E-16  -0.4815615739E-16   0.9581810119E+00
   0.0000000000E+00   0.9961596970E+00   0.9961596970E+00   0.0000000000E+00  -0.4941347737E-03  -0.4941347737E-03   0.0000000000E+00  -0.3346168235E-02  -0.3346168235E-02   0.9581813246E+00   0.3126684377E-06   0.3126684377E-06   0.1507326354E-18  -0.4569159061E-16   0.4945545666E-16   0.9581810120E+00