 VARIABLES = X,Y,Z,DU1,DU2,DU3,U1,U2,U3,S11,S22,S33,S12,S13,S23
 ZONE, T="0.1000D-01" F=FEPOINT, I=   12 J=    2 ET=BRICK
   0.0000000000E+00   0.0000000000E+00   0.0000000000E+00   0.0000000000E+00   0.0000000000E+00   0.0000000000E+00   0.0000000000E+00   0.0000000000E+00   0.0000000000E+00   0.0000000000E+00   0.0000000000E+00   0.0000000000E+00   0.0000000000E+00   0.0000000000E+00   0.0000000000E+00
   0.1000000000E+01   0.0000000000E+00   0.0000000000E+00   0.0000000000E+00   0.0000000000E+00   0.0000000000E+00   0.0000000000E+00   0.0000000000E+00   0.0000000000E+00   0.7407856067E-01   0.3648645525E-01   0.3648645525E-01  -0.1941048611E-18  -0.9507566601E-19   0.0000000000E+00
   0.1000000000E+01   0.1000000000E+01   0.0000000000E+00   0.0000000000E+00   0.0000000000E+00   0.0000000000E+00   0.0000000000E+00   0.0000000000E+00   0.0000000000E+00   0.7407856066E-01   0.3648645525E-01   0.3648645525E-01  -0.1941048611E-18  -0.1917035160E-18   0.0000000000E+00
   0.0000000000E+00   0.1000000000E+01   0.0000000000E+00   0.0000000000E+00   0.0000000000E+00   0.0000000000E+00   0.0000000000E+00   0.0000000000E+00   0.0000000000E+00   0.0000000000E+00   0.0000000000E+00   0.0000000000E+00   0.0000000000E+00   0.0000000000E+00   0.0000000000E+00
   0.0000000000E+00   0.0000000000E+00   0.1000000000E+01   0.0000000000E+00   0.0000000000E+00   0.0000000000E+00   0.0000000000E+00   0.0000000000E+00   0.0000000000E+00   0.0000000000E+00   0.0000000000E+00   0.0000000000E+00   0.0000000000E+00   0.0000000000E+00   0.0000000000E+00
   0.1000000000E+01   0.0000000000E+00   0.1000000000E+01   0.0000000000E+00   0.0000000000E+00   0.0000000000E+00   0.0000000000E+00   0.0000000000E+00   0.0000000000E+00   0.7407856066E-01   0.3648645525E-01   0.3648645525E-01  -0.2182383097E-18  -0.9507566601E-19   0.0000000000E+00
   0.1000000000E+01   0.1000000000E+01   0.1000000000E+01   0.0000000000E+00   0.0000000000E+00   0.0000000000E+00   0.0000000000E+00   0.0000000000E+00   0.0000000000E+00   0.7407856066E-01   0.3648645525E-01   0.3648645525E-01  -0.2182383096E-18  -0.1917035160E-18   0.0000000000E+00
   0.0000000000E+00   0.1000000000E+01   0.1000000000E+01   0.0000000000E+00   0.0000000000E+00   0.0000000000E+00   0.0000000000E+00   0.0000000000E+00   0.0000000000E+00   0.0000000000E+00   0.0000000000E+00   0.0000000000E+00   0.0000000000E+00   0.0000000000E+00   0.0000000000E+00
   0.2000100000E+01   0.0000000000E+00   0.0000000000E+00   0.1000000000E-03   0.0000000000E+00   0.0000000000E+00   0.0000000000E+00   0.0000000000E+00   0.0000000000E+00   0.1481571213E+00   0.7297291050E-01   0.7297291050E-01  -0.4364766193E-18  -0.3834070320E-18   0.0000000000E+00
   0.2000100000E+01   0.1000000000E+01   0.0000000000E+00   0.1000000000E-03   0.0000000000E+00   0.0000000000E+00   0.0000000000E+00   0.0000000000E+00   0.0000000000E+00   0.1481571213E+00   0.7297291050E-01   0.7297291050E-01  -0.4364766193E-18  -0.6357441052E-18   0.0000000000E+00
   0.2000100000E+01   0.0000000000E+00   0.1000000000E+01   0.1000000000E-03   0.0000000000E+00   0.0000000000E+00   0.0000000000E+00   0.0000000000E+00   0.0000000000E+00   0.1481571213E+00   0.7297291050E-01   0.7297291050E-01  -0.6499640588E-18  -0.3834070319E-18   0.0000000000E+00
   0.2000100000E+01   0.1000000000E+01   0.1000000000E+01   0.1000000000E-03   0.0000000000E+00   0.0000000000E+00   0.0000000000E+00   0.0000000000E+00   0.0000000000E+00   0.1481571213E+00   0.7297291050E-01   0.7297291050E-01  -0.6499640587E-18  -0.6357441052E-18   0.0000000000E+00
     1     2     3     4     5     6     7     8
     2     9    10     3     6    11    12     7
 VARIABLES = X,Y,Z,DU1,DU2,DU3,U1,U2,U3,S11,S22,S33,S12,S13,S23
 ZONE, T="0.2000D-01" F=FEPOINT, I=   12 J=    2 ET=BRICK
   0.0000000000E+00   0.0000000000E+00   0.0000000000E+00   0.0000000000E+00   0.0000000000E+00   0.0000000000E+00   0.0000000000E+00   0.0000000000E+00   0.0000000000E+00   0.1957269211E-02   0.1204703746E-04  -0.2622874431E-03  -0.1371670003E-03   0.1371670179E-03   0.2600543312E-20
   0.1000002222E+01   0.0000000000E+00   0.1094593658E-05   0.2222283298E-05   0.0000000000E+00   0.1094593658E-05   0.0000000000E+00   0.0000000000E+00   0.0000000000E+00   0.1457536472E+00   0.6975002651E-01   0.6892702218E-01  -0.1371637737E-03   0.1371638414E-03  -0.1250755196E-14
   0.1000002222E+01   0.9999989054E+00   0.1094593658E-05   0.2222283298E-05  -0.1094593658E-05   0.1094593658E-05   0.0000000000E+00   0.0000000000E+00   0.0000000000E+00   0.1457536472E+00   0.6975002651E-01   0.6892702218E-01  -0.2743275400E-03   0.1371638414E-03   0.2810914006E-14
   0.0000000000E+00   0.1000000000E+01   0.0000000000E+00   0.0000000000E+00   0.0000000000E+00   0.0000000000E+00   0.0000000000E+00   0.0000000000E+00   0.0000000000E+00   0.1957269211E-02   0.1204703746E-04  -0.2622874431E-03  -0.2743339932E-03   0.1371670179E-03   0.1770801239E-14
   0.0000000000E+00   0.0000000000E+00   0.1000000000E+01   0.0000000000E+00   0.0000000000E+00   0.0000000000E+00   0.0000000000E+00   0.0000000000E+00   0.0000000000E+00   0.1957269211E-02   0.1204703746E-04  -0.2622874431E-03  -0.1371670003E-03  -0.1371670179E-03   0.3541598739E-14
   0.1000002222E+01   0.0000000000E+00   0.9999989054E+00   0.2222283298E-05   0.0000000000E+00  -0.1094593658E-05   0.0000000000E+00   0.0000000000E+00   0.0000000000E+00   0.1457536472E+00   0.6975002651E-01   0.6892702218E-01  -0.1371637737E-03  -0.1371638414E-03   0.1187556043E-13
   0.1000002222E+01   0.9999989054E+00   0.9999989054E+00   0.2222283298E-05  -0.1094593658E-05  -0.1094593658E-05   0.0000000000E+00   0.0000000000E+00   0.0000000000E+00   0.1457536472E+00   0.6975002651E-01   0.6892702218E-01  -0.2743275400E-03  -0.1371638414E-03   0.1843873595E-13
   0.0000000000E+00   0.1000000000E+01   0.1000000000E+01   0.0000000000E+00   0.0000000000E+00   0.0000000000E+00   0.0000000000E+00   0.0000000000E+00   0.0000000000E+00   0.1957269211E-02   0.1204703747E-04  -0.2622874431E-03  -0.2743339932E-03  -0.1371670179E-03   0.5312397377E-14
   0.2000200000E+01   0.0000000000E+00   0.2189187315E-05   0.1000000000E-03   0.0000000000E+00   0.2189187315E-05   0.1000000000E-03   0.0000000000E+00   0.0000000000E+00   0.2895500256E+00   0.1394880062E+00   0.1381163311E+00  -0.1371605472E-03   0.1371606649E-03  -0.2501591564E-14
   0.2000200000E+01   0.9999978108E+00   0.2189187315E-05   0.1000000000E-03  -0.2189187315E-05   0.2189187315E-05   0.1000000000E-03   0.0000000000E+00   0.0000000000E+00   0.2895500256E+00   0.1394880062E+00   0.1381163311E+00  -0.2743210869E-03   0.1371606649E-03   0.3850967975E-14
   0.2000200000E+01   0.0000000000E+00   0.9999978108E+00   0.1000000000E-03   0.0000000000E+00  -0.2189187315E-05   0.1000000000E-03   0.0000000000E+00   0.0000000000E+00   0.2895500256E+00   0.1394880062E+00   0.1381163311E+00  -0.1371605471E-03  -0.1371606649E-03   0.2020955070E-13
   0.2000200000E+01   0.9999978108E+00   0.9999978108E+00   0.1000000000E-03  -0.2189187315E-05  -0.2189187315E-05   0.1000000000E-03   0.0000000000E+00   0.0000000000E+00   0.2895500256E+00   0.1394880062E+00   0.1381163311E+00  -0.2743210869E-03  -0.1371606649E-03   0.3156512563E-13
     1     2     3     4     5     6     7     8
     2     9    10     3     6    11    12     7
 VARIABLES = X,Y,Z,DU1,DU2,DU3,U1,U2,U3,S11,S22,S33,S12,S13,S23
 ZONE, T="0.3000D-01" F=FEPOINT, I=   12 J=    2 ET=BRICK
   0.0000000000E+00   0.0000000000E+00  -0.3753601105E-08   0.0000000000E+00   0.0000000000E+00  -0.3753601105E-08   0.0000000000E+00   0.0000000000E+00   0.0000000000E+00   0.7112926533E-02   0.1035979222E-03  -0.8576210241E-03  -0.4882062592E-03   0.4882067015E-03  -0.1293683871E-09
   0.1000008007E+01   0.0000000000E+00   0.3892138251E-05   0.5784704790E-05   0.0000000000E+00   0.2797544593E-05   0.2222283298E-05   0.0000000000E+00   0.1094593658E-05   0.2136761008E+00   0.9796519272E-01   0.9505731569E-01  -0.4866496132E-03   0.4881974018E-03  -0.1303721523E-09
   0.1000008019E+01   0.9999960832E+00   0.3892138251E-05   0.5797047972E-05  -0.2822232552E-05   0.2797544593E-05   0.2222283298E-05  -0.1094593658E-05   0.1094593658E-05   0.2136761007E+00   0.9796519296E-01   0.9505731553E-01  -0.9763923472E-03   0.4881974017E-03  -0.2587167072E-09
   0.0000000000E+00   0.9999999914E+00  -0.3753601105E-08   0.0000000000E+00  -0.8591439455E-08  -0.3753601105E-08   0.0000000000E+00   0.0000000000E+00   0.0000000000E+00   0.7114988484E-02   0.1025671406E-03  -0.8586521936E-03  -0.9779592489E-03   0.4882067008E-03  -0.2577261136E-09
   0.0000000000E+00   0.0000000000E+00   0.1000000004E+01   0.0000000000E+00   0.0000000000E+00   0.3753601105E-08   0.0000000000E+00   0.0000000000E+00   0.0000000000E+00   0.7112926533E-02   0.1035979222E-03  -0.8576210241E-03  -0.4882062592E-03  -0.4882067015E-03   0.1293807796E-09
   0.1000008007E+01   0.0000000000E+00   0.9999961079E+00   0.5784704789E-05   0.0000000000E+00  -0.2797544593E-05   0.2222283298E-05   0.0000000000E+00  -0.1094593658E-05   0.2136761008E+00   0.9796519271E-01   0.9505731568E-01  -0.4866496132E-03  -0.4881974018E-03   0.1304095999E-09
   0.1000008019E+01   0.9999960832E+00   0.9999961079E+00   0.5797047972E-05  -0.2822232552E-05  -0.2797544593E-05   0.2222283298E-05  -0.1094593658E-05  -0.1094593658E-05   0.2136761007E+00   0.9796519295E-01   0.9505731553E-01  -0.9763923471E-03  -0.4881974018E-03   0.2587919614E-09
   0.0000000000E+00   0.9999999914E+00   0.1000000004E+01   0.0000000000E+00  -0.8591439455E-08   0.3753601104E-08   0.0000000000E+00   0.0000000000E+00   0.0000000000E+00   0.7114988484E-02   0.1025671406E-03  -0.8586521936E-03  -0.9779592488E-03  -0.4882067008E-03   0.2577510982E-09
   0.2000300000E+01   0.0000000000E+00   0.7788029434E-05   0.1000000000E-03   0.0000000000E+00   0.5598842119E-05   0.2000000000E-03   0.0000000000E+00   0.2189187315E-05   0.4202392812E+00   0.1958267901E+00   0.1909722436E+00  -0.4881861142E-03   0.4881881020E-03  -0.1293672891E-09
   0.2000300000E+01   0.9999921749E+00   0.7788029434E-05   0.1000000000E-03  -0.5635872385E-05   0.5598842119E-05   0.2000000000E-03  -0.2189187315E-05   0.2189187315E-05   0.4202372190E+00   0.1958278214E+00   0.1909732745E+00  -0.9779185925E-03   0.4881881027E-03  -0.2576986723E-09
   0.2000300000E+01   0.0000000000E+00   0.9999922120E+00   0.1000000000E-03   0.0000000000E+00  -0.5598842119E-05   0.2000000000E-03   0.0000000000E+00  -0.2189187315E-05   0.4202392812E+00   0.1958267901E+00   0.1909722436E+00  -0.4881861142E-03  -0.4881881020E-03   0.1294297923E-09
   0.2000300000E+01   0.9999921749E+00   0.9999922120E+00   0.1000000000E-03  -0.5635872385E-05  -0.5598842118E-05   0.2000000000E-03  -0.2189187315E-05  -0.2189187315E-05   0.4202372190E+00   0.1958278214E+00   0.1909732745E+00  -0.9779185924E-03  -0.4881881027E-03   0.2578241968E-09
     1     2     3     4     5     6     7     8
     2     9    10     3     6    11    12     7
 VARIABLES = X,Y,Z,DU1,DU2,DU3,U1,U2,U3,S11,S22,S33,S12,S13,S23
 ZONE, T="0.4000D-01" F=FEPOINT, I=   12 J=    2 ET=BRICK
   0.0000000000E+00   0.0000000000E+00  -0.1733823910E-07   0.0000000000E+00   0.0000000000E+00  -0.1358463799E-07   0.0000000000E+00   0.0000000000E+00  -0.3753601105E-08   0.1662169386E-01   0.4092448736E-03  -0.1736368318E-02  -0.1111453532E-02   0.1111468148E-02  -0.3538640825E-08
   0.1000018517E+01   0.0000000000E+00   0.8852162131E-05   0.1050961586E-04   0.0000000000E+00   0.4960023880E-05   0.8006988088E-05   0.0000000000E+00   0.3892138251E-05   0.2768011877E+00   0.1197003503E+00   0.1131410067E+00  -0.1103368058E-02   0.1111454690E-02  -0.9671625227E-09
   0.1000018581E+01   0.9999910195E+00   0.8852162129E-05   0.1056166387E-04  -0.5063705108E-05   0.4960023879E-05   0.8019331270E-05  -0.3916826210E-05   0.3892138251E-05   0.2768011868E+00   0.1197003522E+00   0.1131410056E+00  -0.2222871414E-02   0.1111455982E-02  -0.1910307717E-08
   0.0000000000E+00   0.9999999533E+00  -0.1736916246E-07   0.0000000000E+00  -0.3813582465E-07  -0.1361556136E-07   0.0000000000E+00  -0.8591439455E-08  -0.3753601105E-08   0.1663244613E-01   0.4038650026E-03  -0.1741740726E-02  -0.2230975966E-02   0.1111469434E-02  -0.4481882714E-08
   0.0000000000E+00   0.0000000000E+00   0.1000000017E+01   0.0000000000E+00   0.0000000000E+00   0.1358463799E-07   0.0000000000E+00   0.0000000000E+00   0.3753601105E-08   0.1662169385E-01   0.4092448737E-03  -0.1736368318E-02  -0.1111453532E-02  -0.1111468148E-02   0.3538668433E-08
   0.1000018517E+01   0.0000000000E+00   0.9999911478E+00   0.1050961586E-04   0.0000000000E+00  -0.4960023880E-05   0.8006988087E-05   0.0000000000E+00  -0.3892138251E-05   0.2768011877E+00   0.1197003503E+00   0.1131410067E+00  -0.1103368058E-02  -0.1111454690E-02   0.9672467154E-09
   0.1000018581E+01   0.9999910195E+00   0.9999911478E+00   0.1056166387E-04  -0.5063705107E-05  -0.4960023879E-05   0.8019331270E-05  -0.3916826209E-05  -0.3892138250E-05   0.2768011868E+00   0.1197003521E+00   0.1131410056E+00  -0.2222871414E-02  -0.1111455982E-02   0.1910477971E-08
   0.0000000000E+00   0.9999999533E+00   0.1000000017E+01   0.0000000000E+00  -0.3813582465E-07   0.1361556135E-07   0.0000000000E+00  -0.8591439455E-08   0.3753601104E-08   0.1663244613E-01   0.4038650026E-03  -0.1741740726E-02  -0.2230975965E-02  -0.1111469434E-02   0.4481938968E-08
   0.2000400000E+01   0.0000000000E+00   0.1772165562E-04   0.1000000000E-03   0.0000000000E+00   0.9933626183E-05   0.3000000000E-03   0.0000000000E+00   0.7788029434E-05   0.5369807123E+00   0.2389914696E+00   0.2280183370E+00  -0.1111417942E-02   0.1111441231E-02   0.1628205719E-08
   0.2000400000E+01   0.9999820857E+00   0.1772168654E-04   0.1000000000E-03  -0.1008926273E-04   0.9933657104E-05   0.3000000000E-03  -0.7825059700E-05   0.7788029434E-05   0.5369699582E+00   0.2389968532E+00   0.2280237074E+00  -0.2230902220E-02   0.1111442529E-02   0.6851572485E-09
   0.2000400000E+01   0.0000000000E+00   0.9999822783E+00   0.1000000000E-03   0.0000000000E+00  -0.9933626183E-05   0.3000000000E-03   0.0000000000E+00  -0.7788029434E-05   0.5369807123E+00   0.2389914696E+00   0.2280183370E+00  -0.1111417941E-02  -0.1111441231E-02  -0.1628064939E-08
   0.2000400000E+01   0.9999820857E+00   0.9999822783E+00   0.1000000000E-03  -0.1008926273E-04  -0.9933657103E-05   0.3000000000E-03  -0.7825059700E-05  -0.7788029433E-05   0.5369699582E+00   0.2389968532E+00   0.2280237074E+00  -0.2230902219E-02  -0.1111442529E-02  -0.6848729908E-09
     1     2     3     4     5     6     7     8
     2     9    10     3     6    11    12     7
 VARIABLES = X,Y,Z,DU1,DU2,DU3,U1,U2,U3,S11,S22,S33,S12,S13,S23
 ZONE, T="0.5000D-01" F=FEPOINT, I=   12 J=    2 ET=BRICK
   0.0000000000E+00   0.0000000000E+00  -0.4597471030E-07   0.0000000000E+00   0.0000000000E+00  -0.2863647120E-07   0.0000000000E+00   0.0000000000E+00  -0.1733823910E-07   0.3152093454E-01   0.1134530927E-02  -0.2716616284E-02  -0.2042769698E-02   0.2042860809E-02  -0.2154799623E-07
   0.1000034694E+01   0.0000000000E+00   0.1625593381E-04   0.1617690834E-04   0.0000000000E+00   0.7403771677E-05   0.1851660394E-04   0.0000000000E+00   0.8852162131E-05   0.3344494021E+00   0.1339972426E+00   0.1220749355E+00  -0.2017534808E-02   0.2042856677E-02  -0.3869730346E-08
   0.1000034895E+01   0.9999833444E+00   0.1625593380E-04   0.1631378180E-04  -0.7675115927E-05   0.7403771669E-05   0.1858099514E-04  -0.8980531317E-05   0.8852162129E-05   0.3344493981E+00   0.1339972504E+00   0.1220749317E+00  -0.4085500595E-02   0.2042865550E-02  -0.7601373006E-08
   0.0000000000E+00   0.9999998469E+00  -0.4618714035E-07   0.0000000000E+00  -0.1063388864E-06  -0.2881797789E-07   0.0000000000E+00  -0.4672726410E-07  -0.1736916246E-07   0.3155452661E-01   0.1117705126E-02  -0.2733382554E-02  -0.4110759724E-02   0.2042869655E-02  -0.2528010064E-07
   0.0000000000E+00   0.0000000000E+00   0.1000000046E+01   0.0000000000E+00   0.0000000000E+00   0.2863647119E-07   0.0000000000E+00   0.0000000000E+00   0.1733823910E-07   0.3152093454E-01   0.1134530927E-02  -0.2716616284E-02  -0.2042769698E-02  -0.2042860809E-02   0.2154804564E-07
   0.1000034694E+01   0.0000000000E+00   0.9999837441E+00   0.1617690834E-04   0.0000000000E+00  -0.7403771677E-05   0.1851660394E-04   0.0000000000E+00  -0.8852162130E-05   0.3344494021E+00   0.1339972426E+00   0.1220749355E+00  -0.2017534808E-02  -0.2042856678E-02   0.3869882727E-08
   0.1000034895E+01   0.9999833444E+00   0.9999837441E+00   0.1631378180E-04  -0.7675115926E-05  -0.7403771669E-05   0.1858099514E-04  -0.8980531317E-05  -0.8852162129E-05   0.3344493981E+00   0.1339972504E+00   0.1220749317E+00  -0.4085500595E-02  -0.2042865551E-02   0.7601683591E-08
   0.0000000000E+00   0.9999998469E+00   0.1000000046E+01   0.0000000000E+00  -0.1063388864E-06   0.2881797788E-07   0.0000000000E+00  -0.4672726410E-07   0.1736916246E-07   0.3155452661E-01   0.1117705126E-02  -0.2733382554E-02  -0.4110759724E-02  -0.2042869655E-02   0.2528020269E-07
   0.2000500000E+01   0.0000000000E+00   0.3255781057E-04   0.1000000000E-03   0.0000000000E+00   0.1483615496E-04   0.4000000000E-03   0.0000000000E+00   0.1772165562E-04   0.6373779709E+00   0.2668600019E+00   0.2468663383E+00  -0.2042731006E-02   0.2042852543E-02   0.1394604342E-07
   0.2000500000E+01   0.9999668418E+00   0.3255802298E-04   0.1000000000E-03  -0.1524384754E-04   0.1483633645E-04   0.4000000000E-03  -0.1791432243E-04   0.1772168654E-04   0.6373443707E+00   0.2668768432E+00   0.2468830972E+00  -0.4110672553E-02   0.2042861444E-02   0.1021486312E-07
   0.2000500000E+01   0.0000000000E+00   0.9999674422E+00   0.1000000000E-03   0.0000000000E+00  -0.1483615496E-04   0.4000000000E-03   0.0000000000E+00  -0.1772165562E-04   0.6373779709E+00   0.2668600019E+00   0.2468663383E+00  -0.2042731005E-02  -0.2042852543E-02  -0.1394578806E-07
   0.2000500000E+01   0.9999668418E+00   0.9999674420E+00   0.1000000000E-03  -0.1524384754E-04  -0.1483633645E-04   0.4000000000E-03  -0.1791432243E-04  -0.1772168654E-04   0.6373443707E+00   0.2668768432E+00   0.2468830972E+00  -0.4110672553E-02  -0.2042861444E-02  -0.1021434400E-07
     1     2     3     4     5     6     7     8
     2     9    10     3     6    11    12     7
 VARIABLES = X,Y,Z,DU1,DU2,DU3,U1,U2,U3,S11,S22,S33,S12,S13,S23
 ZONE, T="0.6000D-01" F=FEPOINT, I=   12 J=    2 ET=BRICK
   0.0000000000E+00   0.0000000000E+00  -0.8857125640E-07   0.0000000000E+00   0.0000000000E+00  -0.4259654610E-07   0.0000000000E+00   0.0000000000E+00  -0.4597471030E-07   0.5269922001E-01   0.2547994234E-02  -0.3490379819E-02  -0.3292858605E-02   0.3293204983E-02  -0.8124416988E-07
   0.1000057229E+01   0.0000000000E+00   0.2619073998E-04   0.2253582108E-04   0.0000000000E+00   0.9934806172E-05   0.3469351229E-04   0.0000000000E+00   0.1625593381E-04   0.3863397878E+00   0.1404151996E+00   0.1214461469E+00  -0.3231844208E-02   0.3293242060E-02  -0.1120109283E-07
   0.1000057716E+01   0.9999728462E+00   0.2619073995E-04   0.2282155852E-04  -0.1049814413E-04   0.9934806150E-05   0.3489477694E-04  -0.1665564724E-04   0.1625593380E-04   0.3863397753E+00   0.1404152227E+00   0.1214461363E+00  -0.6585710883E-02   0.3293277214E-02  -0.2186439657E-07
   0.0000000000E+00   0.9999996102E+00  -0.8941286740E-07   0.0000000000E+00  -0.2367351398E-06  -0.4322572706E-07   0.0000000000E+00  -0.1530661505E-06  -0.4618714035E-07   0.5278045966E-01   0.2507250326E-02  -0.3530875562E-02  -0.6646741955E-02   0.3293240048E-02  -0.9190898704E-07
   0.0000000000E+00   0.0000000000E+00   0.1000000089E+01   0.0000000000E+00   0.0000000000E+00   0.4259654609E-07   0.0000000000E+00   0.0000000000E+00   0.4597471029E-07   0.5269922000E-01   0.2547994234E-02  -0.3490379818E-02  -0.3292858605E-02  -0.3293204983E-02   0.8124424704E-07
   0.1000057229E+01   0.0000000000E+00   0.9999738093E+00   0.2253582108E-04   0.0000000000E+00  -0.9934806172E-05   0.3469351229E-04   0.0000000000E+00  -0.1625593381E-04   0.3863397878E+00   0.1404151996E+00   0.1214461469E+00  -0.3231844208E-02  -0.3293242060E-02   0.1120133398E-07
   0.1000057716E+01   0.9999728462E+00   0.9999738093E+00   0.2282155852E-04  -0.1049814413E-04  -0.9934806149E-05   0.3489477694E-04  -0.1665564724E-04  -0.1625593380E-04   0.3863397753E+00   0.1404152226E+00   0.1214461363E+00  -0.6585710883E-02  -0.3293277214E-02   0.2186489291E-07
   0.0000000000E+00   0.9999996102E+00   0.1000000089E+01   0.0000000000E+00  -0.2367351398E-06   0.4322572704E-07   0.0000000000E+00  -0.1530661505E-06   0.4618714034E-07   0.5278045965E-01   0.2507250326E-02  -0.3530875562E-02  -0.6646741955E-02  -0.3293240048E-02   0.9190914917E-07
   0.2000600000E+01   0.0000000000E+00   0.5246995106E-04   0.1000000000E-03   0.0000000000E+00   0.1991214049E-04   0.5000000000E-03   0.0000000000E+00   0.3255781057E-04   0.7199806142E+00   0.2782825290E+00   0.2463822910E+00  -0.3292852452E-02   0.3293279131E-02   0.5937961583E-07
   0.2000600000E+01   0.9999460824E+00   0.5247079260E-04   0.1000000000E-03  -0.2075943208E-04   0.1991276962E-04   0.5000000000E-03  -0.3315816996E-04   0.3255802298E-04   0.7198993492E+00   0.2783233186E+00   0.2464227663E+00  -0.6646702448E-02   0.3293314374E-02   0.4871783132E-07
   0.2000600000E+01   0.0000000000E+00   0.9999475300E+00   0.1000000000E-03   0.0000000000E+00  -0.1991214049E-04   0.5000000000E-03   0.0000000000E+00  -0.3255781057E-04   0.7199806141E+00   0.2782825290E+00   0.2463822910E+00  -0.3292852451E-02  -0.3293279131E-02  -0.5937921068E-07
   0.2000600000E+01   0.9999460824E+00   0.9999475292E+00   0.1000000000E-03  -0.2075943208E-04  -0.1991276962E-04   0.5000000000E-03  -0.3315816996E-04  -0.3255802298E-04   0.7198993492E+00   0.2783233186E+00   0.2464227663E+00  -0.6646702448E-02  -0.3293314374E-02  -0.4871700075E-07
     1     2     3     4     5     6     7     8
     2     9    10     3     6    11    12     7
 VARIABLES = X,Y,Z,DU1,DU2,DU3,U1,U2,U3,S11,S22,S33,S12,S13,S23
 ZONE, T="0.7000D-01" F=FEPOINT, I=   12 J=    2 ET=BRICK
   0.0000000000E+00   0.0000000000E+00  -0.1303358739E-06   0.0000000000E+00   0.0000000000E+00  -0.4176461749E-07   0.0000000000E+00   0.0000000000E+00  -0.8857125640E-07   0.8086560083E-01   0.4961846979E-02  -0.3647531696E-02  -0.4846133824E-02   0.4847140739E-02  -0.2353793346E-06
   0.1000086547E+01   0.0000000000E+00   0.3854852832E-04   0.2931786084E-04   0.0000000000E+00   0.1235778834E-04   0.5722933337E-04   0.0000000000E+00   0.2619073998E-04   0.4325944637E+00   0.1390384640E+00   0.1115385396E+00  -0.4720403477E-02   0.4847274071E-02  -0.2630508659E-07
   0.1000087551E+01   0.9999594754E+00   0.3854852826E-04   0.2983487718E-04  -0.1337083214E-04   0.1235778832E-04   0.5771633546E-04  -0.2715379138E-04   0.2619073995E-04   0.4325944330E+00   0.1390385189E+00   0.1115385154E+00  -0.9692360029E-02   0.4847379011E-02  -0.5098474454E-07
   0.0000000000E+00   0.9999991514E+00  -0.1328481307E-06   0.0000000000E+00  -0.4588171252E-06  -0.4343526325E-07   0.0000000000E+00  -0.3898012902E-06  -0.8941286740E-07   0.8103298687E-01   0.4877772937E-02  -0.3730843700E-02  -0.9818074892E-02   0.4847245450E-02  -0.2600627793E-06
   0.0000000000E+00   0.0000000000E+00   0.1000000130E+01   0.0000000000E+00   0.0000000000E+00   0.4176461747E-07   0.0000000000E+00   0.0000000000E+00   0.8857125638E-07   0.8086560082E-01   0.4961846979E-02  -0.3647531696E-02  -0.4846133824E-02  -0.4847140739E-02   0.2353794440E-06
   0.1000086547E+01   0.0000000000E+00   0.9999614515E+00   0.2931786084E-04   0.0000000000E+00  -0.1235778834E-04   0.5722933337E-04   0.0000000000E+00  -0.2619073998E-04   0.4325944637E+00   0.1390384640E+00   0.1115385396E+00  -0.4720403477E-02  -0.4847274072E-02   0.2630543386E-07
   0.1000087551E+01   0.9999594754E+00   0.9999614515E+00   0.2983487718E-04  -0.1337083214E-04  -0.1235778831E-04   0.5771633545E-04  -0.2715379137E-04  -0.2619073995E-04   0.4325944330E+00   0.1390385189E+00   0.1115385154E+00  -0.9692360029E-02  -0.4847379012E-02   0.5098546789E-07
   0.0000000000E+00   0.9999991514E+00   0.1000000133E+01   0.0000000000E+00  -0.4588171252E-06   0.4343526322E-07   0.0000000000E+00  -0.3898012902E-06   0.8941286737E-07   0.8103298687E-01   0.4877772937E-02  -0.3730843700E-02  -0.9818074891E-02  -0.4847245450E-02   0.2600630141E-06
   0.2000700000E+01   0.0000000000E+00   0.7722714180E-04   0.1000000000E-03   0.0000000000E+00   0.2475719074E-04   0.6000000000E-03   0.0000000000E+00   0.5246995106E-04   0.7843238786E+00   0.2731153480E+00   0.2267237919E+00  -0.4846226457E-02   0.4847407391E-02   0.1844050553E-06
   0.2000700000E+01   0.9999197998E+00   0.7722965391E-04   0.1000000000E-03  -0.2628259038E-04   0.2475886131E-04   0.6000000000E-03  -0.5391760205E-04   0.5247079260E-04   0.7841564301E+00   0.2731995307E+00   0.2268070576E+00  -0.9818198483E-02   0.4847512561E-02   0.1597292198E-06
   0.2000700000E+01   0.0000000000E+00   0.9999227729E+00   0.1000000000E-03   0.0000000000E+00  -0.2475719074E-04   0.6000000000E-03   0.0000000000E+00  -0.5246995106E-04   0.7843238786E+00   0.2731153480E+00   0.2267237919E+00  -0.4846226457E-02  -0.4847407391E-02  -0.1844044702E-06
   0.2000700000E+01   0.9999197998E+00   0.9999227703E+00   0.1000000000E-03  -0.2628259037E-04  -0.2475886131E-04   0.6000000000E-03  -0.5391760204E-04  -0.5247079260E-04   0.7841564301E+00   0.2731995307E+00   0.2268070576E+00  -0.9818198483E-02  -0.4847512561E-02  -0.1597280078E-06
     1     2     3     4     5     6     7     8
     2     9    10     3     6    11    12     7
 VARIABLES = X,Y,Z,DU1,DU2,DU3,U1,U2,U3,S11,S22,S33,S12,S13,S23
 ZONE, T="0.8000D-01" F=FEPOINT, I=   12 J=    2 ET=BRICK
   0.0000000000E+00   0.0000000000E+00  -0.1341189288E-06   0.0000000000E+00   0.0000000000E+00  -0.3783054949E-08   0.0000000000E+00   0.0000000000E+00  -0.1303358739E-06   0.1165211925E+00   0.8702895229E-02  -0.2715312934E-02  -0.6661172226E-02   0.6663631370E-02  -0.5742198567E-06
   0.1000122797E+01   0.0000000000E+00   0.5303854283E-04   0.3625014313E-04   0.0000000000E+00   0.1449001452E-04   0.8654719421E-04   0.0000000000E+00   0.3854852832E-04   0.4737150754E+00   0.1304474868E+00   0.9329040598E-01  -0.6429467054E-02   0.6663939368E-02  -0.5316741645E-07
   0.1000124648E+01   0.9999433372E+00   0.5303854286E-04   0.3709697485E-04  -0.1613815078E-04   0.1449001460E-04   0.8755121264E-04  -0.4052462351E-04   0.3854852826E-04   0.4737150116E+00   0.1304475990E+00   0.9329035759E-01  -0.1332263518E-01   0.6664200920E-02  -0.1022405480E-06
   0.0000000000E+00   0.9999983437E+00  -0.1403801272E-06   0.0000000000E+00  -0.8076497152E-06  -0.7531996495E-08   0.0000000000E+00  -0.8486184155E-06  -0.1328481307E-06   0.1168295543E+00   0.8547746321E-02  -0.2868525799E-02  -0.1355425524E-01   0.6663892413E-02  -0.6233007170E-06
   0.0000000000E+00   0.0000000000E+00   0.1000000134E+01   0.0000000000E+00   0.0000000000E+00   0.3783054922E-08   0.0000000000E+00   0.0000000000E+00   0.1303358738E-06   0.1165211925E+00   0.8702895230E-02  -0.2715312934E-02  -0.6661172226E-02  -0.6663631370E-02   0.5742200006E-06
   0.1000122797E+01   0.0000000000E+00   0.9999469615E+00   0.3625014313E-04   0.0000000000E+00  -0.1449001451E-04   0.8654719421E-04   0.0000000000E+00  -0.3854852832E-04   0.4737150754E+00   0.1304474868E+00   0.9329040597E-01  -0.6429467054E-02  -0.6663939369E-02   0.5316788174E-07
   0.1000124648E+01   0.9999433372E+00   0.9999469615E+00   0.3709697485E-04  -0.1613815078E-04  -0.1449001460E-04   0.8755121263E-04  -0.4052462351E-04  -0.3854852826E-04   0.4737150116E+00   0.1304475990E+00   0.9329035759E-01  -0.1332263518E-01  -0.6664200921E-02   0.1022415315E-06
   0.0000000000E+00   0.9999983437E+00   0.1000000140E+01   0.0000000000E+00  -0.8076497152E-06   0.7531996447E-08   0.0000000000E+00  -0.8486184155E-06   0.1328481306E-06   0.1168295543E+00   0.8547746321E-02  -0.2868525798E-02  -0.1355425524E-01  -0.6663892413E-02   0.6233010343E-06
   0.2000800000E+01   0.0000000000E+00   0.1062106693E-03   0.1000000000E-03   0.0000000000E+00   0.2898352752E-04   0.7000000000E-03   0.0000000000E+00   0.7722714180E-04   0.8309099883E+00   0.2521925766E+00   0.1892945968E+00  -0.6661463291E-02   0.6664247348E-02   0.4720439629E-06
   0.2000800000E+01   0.9998883316E+00   0.1062169305E-03   0.1000000000E-03  -0.3146818651E-04   0.2898727655E-04   0.7000000000E-03  -0.8020019242E-04   0.7722965391E-04   0.8306014961E+00   0.2523479471E+00   0.1894477184E+00  -0.1355471650E-01   0.6664509410E-02   0.4229787240E-06
   0.2000800000E+01   0.0000000000E+00   0.9998937893E+00   0.1000000000E-03   0.0000000000E+00  -0.2898352752E-04   0.7000000000E-03   0.0000000000E+00  -0.7722714180E-04   0.8309099883E+00   0.2521925765E+00   0.1892945968E+00  -0.6661463291E-02  -0.6664247348E-02  -0.4720431763E-06
   0.2000800000E+01   0.9998883316E+00   0.9998937831E+00   0.1000000000E-03  -0.3146818651E-04  -0.2898727655E-04   0.7000000000E-03  -0.8020019242E-04  -0.7722965391E-04   0.8306014961E+00   0.2523479471E+00   0.1894477184E+00  -0.1355471650E-01  -0.6664509410E-02  -0.4229770742E-06
     1     2     3     4     5     6     7     8
     2     9    10     3     6    11    12     7
 VARIABLES = X,Y,Z,DU1,DU2,DU3,U1,U2,U3,S11,S22,S33,S12,S13,S23
 ZONE, T="0.9000D-01" F=FEPOINT, I=   12 J=    2 ET=BRICK
   0.0000000000E+00   0.0000000000E+00  -0.3140636876E-07   0.0000000000E+00   0.0000000000E+00   0.1027125601E-06   0.0000000000E+00   0.0000000000E+00  -0.1341189288E-06   0.1599349955E+00   0.1407635131E-01  -0.2097317559E-03  -0.8672704605E-02   0.8678008905E-02  -0.1238816255E-05